
*************** JDFTx 1.6.0 (git hash 1d10142) ***************

Start date and time: Thu Sep 30 09:39:59 2021
Executable jdftx_gpu with command-line: -i md.in
Running on hosts (process indices):  gpu3001 (0)
Divided in process groups (process indices):  0 (0)
gpuInit: Found compatible cuda device 0 'Tesla K80'
gpuInit: Selected device 0
Resource initialization completed at t[s]:      1.57
Run totals: 1 processes, 1 threads, 1 GPUs
Memory pool size: 10240 MB (per process)


Input parsed successfully to the following command list (including defaults):

basis kpoint-dependent
coords-type Cartesian
core-overlap-check none
coulomb-interaction Periodic
davidson-band-ratio 1.1
dump Ionic IonicPositions Lattice
dump-name md.$VAR
elec-cutoff 20 100
elec-eigen-algo Davidson
elec-ex-corr gga-PBE
electronic-minimize  \
	dirUpdateScheme      FletcherReeves \
	linminMethod         DirUpdateRecommended \
	nIterations          30 \
	history              15 \
	knormThreshold       0 \
	energyDiffThreshold  1e-07 \
	nEnergyDiff          2 \
	alphaTstart          1 \
	alphaTmin            1e-10 \
	updateTestStepSize   yes \
	alphaTreduceFactor   0.1 \
	alphaTincreaseFactor 3 \
	nAlphaAdjustMax      3 \
	wolfeEnergy          0.0001 \
	wolfeGradient        0.9 \
	fdTest               no
exchange-regularization WignerSeitzTruncated
fluid None
fluid-ex-corr (null) lda-PZ
fluid-gummel-loop 10 1.000000e-05
fluid-minimize  \
	dirUpdateScheme      PolakRibiere \
	linminMethod         DirUpdateRecommended \
	nIterations          100 \
	history              15 \
	knormThreshold       0 \
	energyDiffThreshold  0 \
	nEnergyDiff          2 \
	alphaTstart          1 \
	alphaTmin            1e-10 \
	updateTestStepSize   yes \
	alphaTreduceFactor   0.1 \
	alphaTincreaseFactor 3 \
	nAlphaAdjustMax      3 \
	wolfeEnergy          0.0001 \
	wolfeGradient        0.9 \
	fdTest               no
fluid-solvent H2O 55.338 ScalarEOS \
	epsBulk 78.4 \
	pMol 0.92466 \
	epsInf 1.77 \
	Pvap 1.06736e-10 \
	sigmaBulk 4.62e-05 \
	Rvdw 2.61727 \
	Res 1.42 \
	tauNuc 343133 \
	poleEl 15 7 1
forces-output-coords Positions
ion Na  17.809059999999999  13.866210000000001  18.914269999999998 1
ion Na  11.539030000000000  14.007710000000001  13.354680000000000 1
ion Na  10.853490000000001  12.309640000000002   7.609250000000001 1
ion Na  13.775690000000001  19.543360000000000  16.952539999999999 1
ion Na  20.714230000000001   8.001540000000000  20.530360000000002 1
ion Na   6.531800000000000  15.186330000000002  12.592720000000000 1
ion Na  21.888700000000000  10.496310000000001  13.796700000000000 1
ion Na   8.649430000000001  21.662500000000005  15.685860000000000 1
ion Na  13.033250000000002  18.816530000000000  11.545940000000000 1
ion Na  15.749770000000002   9.475070000000001  19.934150000000002 1
ion Na   7.651460000000000  17.324079999999999  17.601910000000000 1
ion Na  18.214500000000005  17.454400000000000  11.827570000000001 1
ion Na  23.071480000000001  14.336290000000000   6.554500000000001 1
ion Na  20.204200000000000  22.702410000000000  15.997870000000001 1
ion Na  16.694600000000001  12.133990000000001  13.856019999999999 1
ion Na   9.382450000000000   7.682170000000001   9.053509999999999 1
ion Na  15.828690000000002  11.590070000000003   8.148460000000000 1
ion Na  11.632930000000000  12.291020000000000  18.613920000000004 1
ion Na  22.329570000000000  12.260640000000000  18.789980000000000 1
ion Na  14.357760000000003   6.751760000000000   9.882809999999999 1
ion Na  17.653800000000000  15.620530000000002   6.844040000000001 1
ion Na  15.257350000000001   7.463450000000001  15.263190000000002 1
ion Na   9.606669999999999   9.868259999999999  14.120710000000003 1
ion Na  20.003129999999999  21.727879999999999  10.295060000000001 1
ion Na   7.728280000000000  19.181100000000001  22.376249999999999 1
ion Na  19.352499999999999  18.698689999999999  17.586130000000001 1
ion Na  12.156230000000001  17.479649999999999  22.627009999999999 1
ion Na  21.116930000000000   9.773230000000000   8.596040000000002 1
ion Na   7.846160000000000  19.913370000000000  11.106150000000000 1
ion Na  14.142370000000000  22.104500000000002  21.718430000000005 1
ion Na   9.158350000000002   6.728090000000000  20.796060000000004 1
ion Na  19.296939999999999  20.067570000000000  22.691260000000000 1
ion Cl  18.104120000000002   8.633890000000001  12.167080000000002 1
ion Cl  22.197289999999999  20.939490000000003  18.995149999999999 1
ion Cl  19.449249999999999  13.065530000000001  10.273990000000000 1
ion Cl  16.689720000000001  20.738040000000002  14.083010000000002 1
ion Cl  17.204940000000001  22.690890000000003  18.914650000000002 1
ion Cl  21.170410000000000  16.108730000000001  20.572130000000001 1
ion Cl  15.948820000000000  18.230869999999999  20.335339999999999 1
ion Cl  14.516140000000002  13.501580000000002  21.727689999999999 1
ion Cl  12.032320000000000   8.375810000000000  23.205839999999998 1
ion Cl  11.042240000000000  21.037379999999999   8.175670000000000 1
ion Cl  16.244560000000000  19.756329999999998   8.272880000000001 1
ion Cl  19.472120000000000  11.604510000000001  22.547650000000001 1
ion Cl  17.703579999999999   7.164950000000000   6.526470000000000 1
ion Cl   9.959199999999999  17.765789999999999  14.294400000000001 1
ion Cl   7.608040000000001  11.474040000000002  10.729939999999999 1
ion Cl   9.378410000000001  15.475479999999999  21.094070000000002 1
ion Cl   6.882170000000001   8.139010000000001  17.014810000000001 1
ion Cl  12.526330000000000   8.738940000000001  17.291149999999998 1
ion Cl  13.098409999999999  10.469049999999999  11.557430000000000 1
ion Cl  11.455260000000001  22.546890000000001  13.188400000000000 1
ion Cl  10.867780000000000  20.255970000000005  19.344940000000001 1
ion Cl  21.822370000000003  17.642480000000003   8.654780000000001 1
ion Cl   9.516430000000001  16.142800000000001   9.308560000000000 1
ion Cl  22.681440000000002  22.776110000000003   6.570240000000001 1
ion Cl  21.795350000000003  19.121760000000002  14.325650000000000 1
ion Cl  14.898700000000002  15.397770000000000  10.588490000000002 1
ion Cl  18.975500000000000   9.856570000000000  17.043479999999999 1
ion Cl  14.358420000000001  15.346259999999999  16.315349999999999 1
ion Cl  23.509709999999998   6.540660000000001  11.940080000000000 1
ion Cl   8.178730000000000  13.072940000000001  16.073820000000001 1
ion Cl   7.240520000000001  10.487940000000002  22.483210000000003 1
ion Cl  19.931509999999999  14.755780000000001  15.513480000000001 1
ion-species GBRV/$ID_pbe.uspp
ion-width 0
ionic-dynamics  \
	dt         1 \
	nSteps     200 \
	statMethod None \
	T0         298 \
	P0         nan \
	stress0 nan nan nan  0 0 0 \
	tDampT       50 \
	tDampP       100 \
	chainLengthT 3 \
	chainLengthP 3 \
	B0           22000
ionic-minimize  \
	dirUpdateScheme      L-BFGS \
	linminMethod         DirUpdateRecommended \
	nIterations          0 \
	history              15 \
	knormThreshold       0.0001 \
	energyDiffThreshold  1e-06 \
	nEnergyDiff          2 \
	alphaTstart          1 \
	alphaTmin            1e-10 \
	updateTestStepSize   yes \
	alphaTreduceFactor   0.1 \
	alphaTincreaseFactor 3 \
	nAlphaAdjustMax      3 \
	wolfeEnergy          0.0001 \
	wolfeGradient        0.9 \
	fdTest               no
kpoint   0.000000000000   0.000000000000   0.000000000000  1.00000000000000
kpoint-folding 1 1 1 
latt-move-scale 1 1 1
latt-scale 1 1 1 
lattice  \
	  17.102509999999999    0.000000000000000    0.000000000000000  \
	   0.000000000000000   17.102509999999999    0.000000000000000  \
	   0.000000000000000    0.000000000000000   17.102509999999999 
lattice-minimize  \
	dirUpdateScheme      L-BFGS \
	linminMethod         DirUpdateRecommended \
	nIterations          0 \
	history              15 \
	knormThreshold       0 \
	energyDiffThreshold  1e-06 \
	nEnergyDiff          2 \
	alphaTstart          1 \
	alphaTmin            1e-10 \
	updateTestStepSize   yes \
	alphaTreduceFactor   0.1 \
	alphaTincreaseFactor 3 \
	nAlphaAdjustMax      3 \
	wolfeEnergy          0.0001 \
	wolfeGradient        0.9 \
	fdTest               no
lcao-params -1 1e-06 0.001
pcm-variant GLSSA13
spintype no-spin
subspace-rotation-factor 1 yes
symmetries automatic
symmetry-threshold 0.0001
van-der-waals 



---------- Setting up symmetries ----------

Found 48 point-group symmetries of the bravais lattice
Found 1 space-group symmetries with basis
Applied RMS atom displacement 0 bohrs to make symmetries exact.

---------- Initializing the Grid ----------
R = 
[      17.1025            0            0  ]
[            0      17.1025            0  ]
[            0            0      17.1025  ]
unit cell volume = 5002.41
G =
[   0.367384          0          0  ]
[          0   0.367384          0  ]
[          0          0   0.367384  ]
Minimum fftbox size, Smin = [  80  80  80  ]
Chosen fftbox size, S = [  80  80  80  ]

---------- Initializing tighter grid for wavefunction operations ----------
R = 
[      17.1025            0            0  ]
[            0      17.1025            0  ]
[            0            0      17.1025  ]
unit cell volume = 5002.41
G =
[   0.367384          0          0  ]
[          0   0.367384          0  ]
[          0          0   0.367384  ]
Minimum fftbox size, Smin = [  72  72  72  ]
Chosen fftbox size, S = [  72  72  72  ]

---------- Exchange Correlation functional ----------
Initalized PBE GGA exchange.
Initalized PBE GGA correlation.

---------- Setting up pseudopotentials ----------
Width of ionic core gaussian charges (only for fluid interactions / plotting) set to 0

Reading pseudopotential file '/home/kamron/DFT/jdftx/build/pseudopotentials/GBRV/na_pbe.uspp':
  Title: Na.  Created by USPP 7.3.6 on 23-9-15
  Reference state energy: -47.625620.  9 valence electrons in orbitals:
    |200>  occupation: 2  eigenvalue: -2.085638
    |210>  occupation: 6  eigenvalue: -1.053708
    |300>  occupation: 1  eigenvalue: -0.100838
  lMax: 2  lLocal: 0  QijEcut: 6
  5 projectors sampled on a log grid with 657 points:
    l: 0  eig: -2.085640  rCut: 1.37
    l: 0  eig: -0.100839  rCut: 1.37
    l: 1  eig: -1.053708  rCut: 1.47
    l: 1  eig: 0.500000  rCut: 1.47
    l: 2  eig: 0.750000  rCut: 2
  Transforming local potential to a uniform radial grid of dG=0.02 with 1278 points.
  Transforming nonlocal projectors to a uniform radial grid of dG=0.02 with 432 points.
  Transforming density augmentations to a uniform radial grid of dG=0.02 with 1278 points.
  Transforming atomic orbitals to a uniform radial grid of dG=0.02 with 432 points.
  Core radius for overlap checks: 2.00 bohrs.

Reading pseudopotential file '/home/kamron/DFT/jdftx/build/pseudopotentials/GBRV/cl_pbe.uspp':
  Title: Chlorine.  Created by USPP 7.3.6 on 1-4-15
  Reference state energy: -16.579107.  7 valence electrons in orbitals:
    |300>  occupation: 2  eigenvalue: -0.760425
    |310>  occupation: 5  eigenvalue: -0.315868
  lMax: 2  lLocal: 3  QijEcut: 6
  6 projectors sampled on a log grid with 639 points:
    l: 0  eig: -0.760414  rCut: 1.3
    l: 0  eig: -1.000000  rCut: 1.3
    l: 1  eig: -0.315867  rCut: 1.3
    l: 1  eig: 1.000000  rCut: 1.3
    l: 2  eig: -0.500000  rCut: 1.3
    l: 2  eig: 1.000000  rCut: 1.3
  Partial core density with radius 1.1
  Transforming core density to a uniform radial grid of dG=0.02 with 1278 points.
  Transforming local potential to a uniform radial grid of dG=0.02 with 1278 points.
  Transforming nonlocal projectors to a uniform radial grid of dG=0.02 with 432 points.
  Transforming density augmentations to a uniform radial grid of dG=0.02 with 1278 points.
  Transforming atomic orbitals to a uniform radial grid of dG=0.02 with 432 points.
  Core radius for overlap checks: 1.30 bohrs.

Initialized 2 species with 64 total atoms.

Folded 1 k-points by 1x1x1 to 1 k-points.

---------- Setting up k-points, bands, fillings ----------
No reducable k-points. 
Computing the number of bands and number of electrons
Calculating initial fillings.
nElectrons: 512.000000   nBands: 256   nStates: 1

----- Setting up reduced wavefunction bases (one per k-point) -----
average nbasis = 21367.000 , ideal nbasis = 21370.690

Initializing van der Waals corrections
	Na:  C6:   99.04 Eh-a0^6  R0: 2.162 a0
	Cl:  C6:   87.94 Eh-a0^6  R0: 3.097 a0

---------- Setting up ewald sum ----------
Optimum gaussian width for ewald sums = 3.411457 bohr.
Real space sum over 343 unit cells with max indices [  3  3  3  ]
Reciprocal space sum over 6859 terms with max indices [  9  9  9  ]

---------- Allocating electronic variables ----------
Initializing wave functions:  linear combination of atomic orbitals
Na pseudo-atom occupations:   s ( 2 1 )  p ( 6 )
Cl pseudo-atom occupations:   s ( 2 )  p ( 5 )
	FillingsUpdate:  mu: +0.627386866  nElectrons: 512.000000
LCAOMinimize: Iter:   0  Etot: -2005.1037592491657051  |grad|_K:  2.647e-03  alpha:  1.000e+00
	FillingsUpdate:  mu: +0.624271952  nElectrons: 512.000000
LCAOMinimize: Iter:   1  Etot: -2005.3607726571449348  |grad|_K:  1.671e-04  alpha:  8.590e-01  linmin:  1.911e-01  cgtest: -5.683e-01  t[s]:     18.62
	FillingsUpdate:  mu: +0.623519299  nElectrons: 512.000000
LCAOMinimize: Iter:   2  Etot: -2005.3612074881170884  |grad|_K:  1.090e-04  alpha:  6.801e-01  linmin:  7.357e-05  cgtest:  6.787e-01  t[s]:     20.34
LCAOMinimize: Encountered beta<0, resetting CG.
	FillingsUpdate:  mu: +0.623585175  nElectrons: 512.000000
LCAOMinimize: Iter:   3  Etot: -2005.3616107180594099  |grad|_K:  4.210e-06  alpha:  8.123e-01  linmin: -1.098e-02  cgtest:  4.920e-02  t[s]:     22.08
LCAOMinimize: Encountered beta<0, resetting CG.
LCAOMinimize: None of the convergence criteria satisfied after 3 iterations.


---- Citations for features of the code used in this run ----

   Software package:
      R. Sundararaman, K. Letchworth-Weaver, K.A. Schwarz, D. Gunceler, Y. Ozhabes and T.A. Arias, 'JDFTx: software for joint density-functional theory', SoftwareX 6, 278 (2017)

   gga-PBE exchange-correlation functional:
      J.P. Perdew, K. Burke and M. Ernzerhof, Phys. Rev. Lett. 77, 3865 (1996)

   Pseudopotentials:
      KF Garrity, JW Bennett, KM Rabe and D Vanderbilt, Comput. Mater. Sci. 81, 446 (2014)

   Van der Waals correction pair-potentials:
      S. Grimme, J. Comput. Chem. 27, 1787 (2006)

   Total energy minimization:
      T.A. Arias, M.C. Payne and J.D. Joannopoulos, Phys. Rev. Lett. 69, 1077 (1992)

This list may not be complete. Please suggest additional citations or
report any other bugs at https://github.com/shankar1729/jdftx/issues

Initialization completed successfully at t[s]:     22.27

---------- Ionic Dynamics -----------

-------- Electronic minimization -----------
ElecMinimize: Iter:   0  Etot: -2005.361610717955045  |grad|_K:  6.170e-04  alpha:  1.000e+00
ElecMinimize: Iter:   1  Etot: -2006.812930973313769  |grad|_K:  3.709e-04  alpha:  6.940e-01  linmin: -2.042e-04  t[s]:     29.62
ElecMinimize: Iter:   2  Etot: -2007.063702187395620  |grad|_K:  2.138e-04  alpha:  3.339e-01  linmin:  4.235e-04  t[s]:     31.90
ElecMinimize: Iter:   3  Etot: -2007.246243324110992  |grad|_K:  1.179e-04  alpha:  7.301e-01  linmin: -6.420e-04  t[s]:     34.14
ElecMinimize: Iter:   4  Etot: -2007.289384721651913  |grad|_K:  6.163e-05  alpha:  5.668e-01  linmin: -4.059e-05  t[s]:     36.40
ElecMinimize: Iter:   5  Etot: -2007.303412972234810  |grad|_K:  4.209e-05  alpha:  6.752e-01  linmin: -6.838e-05  t[s]:     38.66
ElecMinimize: Iter:   6  Etot: -2007.307502056085013  |grad|_K:  2.368e-05  alpha:  4.218e-01  linmin: -1.819e-05  t[s]:     40.92
ElecMinimize: Iter:   7  Etot: -2007.309184908928273  |grad|_K:  1.702e-05  alpha:  5.488e-01  linmin:  9.797e-06  t[s]:     43.19
ElecMinimize: Iter:   8  Etot: -2007.310011217157808  |grad|_K:  1.011e-05  alpha:  5.214e-01  linmin:  1.055e-06  t[s]:     45.45
ElecMinimize: Iter:   9  Etot: -2007.310333352927501  |grad|_K:  7.003e-06  alpha:  5.758e-01  linmin: -3.066e-06  t[s]:     47.72
ElecMinimize: Iter:  10  Etot: -2007.310489436581975  |grad|_K:  3.748e-06  alpha:  5.818e-01  linmin:  7.454e-06  t[s]:     49.99
ElecMinimize: Iter:  11  Etot: -2007.310545738397877  |grad|_K:  2.556e-06  alpha:  7.326e-01  linmin: -3.631e-06  t[s]:     52.25
ElecMinimize: Iter:  12  Etot: -2007.310563904432911  |grad|_K:  2.013e-06  alpha:  5.083e-01  linmin: -2.031e-07  t[s]:     54.53
ElecMinimize: Iter:  13  Etot: -2007.310574881144476  |grad|_K:  1.145e-06  alpha:  4.950e-01  linmin:  6.138e-06  t[s]:     56.81
ElecMinimize: Iter:  14  Etot: -2007.310579891555790  |grad|_K:  7.663e-07  alpha:  6.983e-01  linmin: -2.204e-07  t[s]:     59.07
ElecMinimize: Iter:  15  Etot: -2007.310581931351862  |grad|_K:  5.258e-07  alpha:  6.350e-01  linmin: -4.358e-07  t[s]:     61.35
ElecMinimize: Iter:  16  Etot: -2007.310582818942066  |grad|_K:  3.621e-07  alpha:  5.869e-01  linmin:  1.966e-06  t[s]:     63.66
ElecMinimize: Iter:  17  Etot: -2007.310583238250047  |grad|_K:  2.511e-07  alpha:  5.846e-01  linmin:  4.880e-06  t[s]:     65.96
ElecMinimize: Iter:  18  Etot: -2007.310583422085529  |grad|_K:  1.929e-07  alpha:  5.330e-01  linmin:  6.294e-06  t[s]:     68.26
ElecMinimize: Iter:  19  Etot: -2007.310583530648273  |grad|_K:  1.161e-07  alpha:  5.333e-01  linmin:  5.574e-06  t[s]:     70.51
ElecMinimize: Iter:  20  Etot: -2007.310583577842181  |grad|_K:  7.927e-08  alpha:  6.406e-01  linmin:  2.836e-05  t[s]:     72.78
ElecMinimize: Iter:  21  Etot: -2007.310583601369217  |grad|_K:  5.035e-08  alpha:  6.845e-01  linmin:  4.628e-05  t[s]:     75.01
ElecMinimize: Converged (|Delta Etot|<1.000000e-07 for 2 iters).
Setting wave functions to eigenvectors of Hamiltonian

IonicDynamics: Step:   0  PE: -2007.310584  KE:   0.089181  T[K]:  298.000  P[Bar]:      nan  tMD[fs]:      0.00  t[s]:     79.67

# Ionic positions in cartesian coordinates:
ion Na  17.809059999999999  13.866210000000001  18.914269999999998 v  -0.000147115007877   0.000189629242139   0.000131818380166 1
ion Na  11.539030000000000  14.007710000000001  13.354680000000000 v  -0.000005621414714  -0.000074802505415   0.000126057318464 1
ion Na  10.853490000000001  12.309640000000002   7.609250000000001 v   0.000194433804926  -0.000052349486065  -0.000045323511877 1
ion Na  13.775690000000001  19.543360000000000  16.952539999999999 v  -0.000055736709324   0.000049075637343  -0.000041547866285 1
ion Na  20.714230000000001   8.001540000000000  20.530360000000002 v   0.000128178602999  -0.000067247298785   0.000001414069584 1
ion Na   6.531800000000000  15.186330000000002  12.592720000000000 v  -0.000237774895023  -0.000053520730272   0.000018684374918 1
ion Na  21.888700000000000  10.496310000000001  13.796700000000000 v  -0.000123857340663  -0.000114249263703   0.000027230013908 1
ion Na   8.649430000000001  21.662500000000005  15.685860000000000 v   0.000178739529588  -0.000203410077991   0.000098633471893 1
ion Na  13.033250000000002  18.816530000000000  11.545940000000000 v   0.000241367450781  -0.000035887908060  -0.000147325629371 1
ion Na  15.749770000000002   9.475070000000001  19.934150000000002 v   0.000036656223993  -0.000229383254628  -0.000049810643662 1
ion Na   7.651460000000000  17.324079999999999  17.601910000000000 v  -0.000014862799939   0.000018422467991   0.000238255924376 1
ion Na  18.214500000000005  17.454400000000000  11.827570000000001 v   0.000206070384333  -0.000177360846308   0.000088512854710 1
ion Na  23.071480000000001  14.336290000000000   6.554500000000001 v  -0.000301376989699  -0.000211706034511  -0.000070978315206 1
ion Na  20.204200000000000  22.702410000000000  15.997870000000001 v  -0.000398874702462  -0.000208423118344  -0.000049482403190 1
ion Na  16.694600000000001  12.133990000000001  13.856019999999999 v  -0.000087845696209  -0.000024605226828   0.000048681365183 1
ion Na   9.382450000000000   7.682170000000001   9.053509999999999 v   0.000023585263467  -0.000034837548405   0.000097953918826 1
ion Na  15.828690000000002  11.590070000000003   8.148460000000000 v  -0.000351412898851  -0.000076215800089   0.000000113227078 1
ion Na  11.632930000000000  12.291020000000000  18.613920000000004 v   0.000033636915364  -0.000095096632271   0.000025528908492 1
ion Na  22.329570000000000  12.260640000000000  18.789980000000000 v  -0.000209559638583   0.000203236649567  -0.000031918501803 1
ion Na  14.357760000000003   6.751760000000000   9.882809999999999 v   0.000073684242309  -0.000308570907893  -0.000111756151270 1
ion Na  17.653800000000000  15.620530000000002   6.844040000000001 v   0.000245883047765   0.000107171376788  -0.000107286925414 1
ion Na  15.257350000000001   7.463450000000001  15.263190000000002 v  -0.000317516249029  -0.000101015726440  -0.000187184113507 1
ion Na   9.606669999999999   9.868259999999999  14.120710000000003 v  -0.000041074322804   0.000078460498194  -0.000125303573839 1
ion Na  20.003129999999999  21.727879999999999  10.295060000000001 v   0.000094865558639   0.000033080849777   0.000087912836728 1
ion Na   7.728280000000000  19.181100000000001  22.376249999999999 v   0.000226673782498  -0.000149599899453  -0.000205058842736 1
ion Na  19.352499999999999  18.698689999999999  17.586130000000001 v  -0.000304461855924  -0.000254517021658   0.000146098668480 1
ion Na  12.156230000000001  17.479649999999999  22.627009999999999 v  -0.000016765060173   0.000423720590116   0.000097889236564 1
ion Na  21.116930000000000   9.773230000000000   8.596040000000002 v  -0.000114845829203   0.000384306978997   0.000012523334820 1
ion Na   7.846160000000000  19.913370000000000  11.106150000000000 v  -0.000276061687475   0.000051822665522  -0.000061905041997 1
ion Na  14.142370000000000  22.104500000000002  21.718430000000005 v   0.000158288480686  -0.000014891546092   0.000074982809580 1
ion Na   9.158350000000002   6.728090000000000  20.796060000000004 v   0.000088914787090  -0.000182730011110   0.000278878668050 1
ion Na  19.296939999999999  20.067570000000000  22.691260000000000 v  -0.000261036082456  -0.000231231716507   0.000069711832124 1
ion Cl  18.104120000000002   8.633890000000001  12.167080000000002 v  -0.000029051293687  -0.000122601981615  -0.000166624672855 1
ion Cl  22.197289999999999  20.939490000000003  18.995149999999999 v  -0.000027293421189  -0.000038771535398   0.000075464740043 1
ion Cl  19.449249999999999  13.065530000000001  10.273990000000000 v  -0.000015500960484   0.000147060033938   0.000045208074110 1
ion Cl  16.689720000000001  20.738040000000002  14.083010000000002 v  -0.000154407210060   0.000114703433631  -0.000202146316923 1
ion Cl  17.204940000000001  22.690890000000003  18.914650000000002 v  -0.000088632966200  -0.000136273290840   0.000072981123168 1
ion Cl  21.170410000000000  16.108730000000001  20.572130000000001 v   0.000071133407275  -0.000012915828924  -0.000025903052981 1
ion Cl  15.948820000000000  18.230869999999999  20.335339999999999 v   0.000053812320969   0.000164787196135   0.000064211413455 1
ion Cl  14.516140000000002  13.501580000000002  21.727689999999999 v   0.000206295708620  -0.000115986381328  -0.000074845995107 1
ion Cl  12.032320000000000   8.375810000000000  23.205839999999998 v   0.000053520580010   0.000117362787115  -0.000039161281642 1
ion Cl  11.042240000000000  21.037379999999999   8.175670000000000 v   0.000113660247287   0.000059731122575  -0.000045448224829 1
ion Cl  16.244560000000000  19.756329999999998   8.272880000000001 v  -0.000062143406081   0.000131323368095  -0.000162843407978 1
ion Cl  19.472120000000000  11.604510000000001  22.547650000000001 v   0.000040306216459   0.000011841134549   0.000294180122464 1
ion Cl  17.703579999999999   7.164950000000000   6.526470000000000 v  -0.000015242326996   0.000091748131936  -0.000136977797362 1
ion Cl   9.959199999999999  17.765789999999999  14.294400000000001 v   0.000041199332472  -0.000055137720121   0.000061336173808 1
ion Cl   7.608040000000001  11.474040000000002  10.729939999999999 v   0.000127100477427  -0.000037501786666  -0.000034761506102 1
ion Cl   9.378410000000001  15.475479999999999  21.094070000000002 v   0.000194213691125   0.000128176487709  -0.000123431324271 1
ion Cl   6.882170000000001   8.139010000000001  17.014810000000001 v   0.000108321652080   0.000060861945363   0.000030498933369 1
ion Cl  12.526330000000000   8.738940000000001  17.291149999999998 v   0.000008200290237   0.000171699238892  -0.000075903729218 1
ion Cl  13.098409999999999  10.469049999999999  11.557430000000000 v   0.000156712391155   0.000098484187027  -0.000203925413829 1
ion Cl  11.455260000000001  22.546890000000001  13.188400000000000 v   0.000040646111917   0.000091837081080  -0.000047572396611 1
ion Cl  10.867780000000000  20.255970000000005  19.344940000000001 v   0.000101605250511   0.000011719048690   0.000010293086074 1
ion Cl  21.822370000000003  17.642480000000003   8.654780000000001 v  -0.000134471830267   0.000023725808563   0.000170080554007 1
ion Cl   9.516430000000001  16.142800000000001   9.308560000000000 v   0.000117336503511  -0.000038131925174   0.000151295650038 1
ion Cl  22.681440000000002  22.776110000000003   6.570240000000001 v  -0.000003416727371   0.000119290622013  -0.000020308758405 1
ion Cl  21.795350000000003  19.121760000000002  14.325650000000000 v   0.000117577981672   0.000023326296980   0.000063106889962 1
ion Cl  14.898700000000002  15.397770000000000  10.588490000000002 v   0.000032400445157  -0.000157892961852  -0.000073644516918 1
ion Cl  18.975500000000000   9.856570000000000  17.043479999999999 v   0.000154272067478   0.000042866797420   0.000023926737790 1
ion Cl  14.358420000000001  15.346259999999999  16.315349999999999 v   0.000010187384300   0.000191951794144   0.000088117344839 1
ion Cl  23.509709999999998   6.540660000000001  11.940080000000000 v  -0.000118286499417   0.000040772557547   0.000098569246679 1
ion Cl   8.178730000000000  13.072940000000001  16.073820000000001 v   0.000080566585396   0.000095891975388  -0.000026433296180 1
ion Cl   7.240520000000001  10.487940000000002  22.483210000000003 v   0.000159232198819   0.000073590356375  -0.000018348578980 1
ion Cl  19.931509999999999  14.755780000000001  15.513480000000001 v  -0.000005033096149   0.000065187611143  -0.000206989513401 1

# Forces in Cartesian coordinates:
force Na  -0.025408645767808  -0.004065536242905   0.016991626218423 1
force Na  -0.003103962621052  -0.006227293966503  -0.022975342025493 1
force Na   0.013089457438828   0.014980140772254  -0.003254101300862 1
force Na   0.028566031132648   0.010239258421404  -0.061660087188821 1
force Na   0.024034807841628  -0.011401570074812  -0.007034415155133 1
force Na  -0.028438806830438   0.020105077795959  -0.007984458610018 1
force Na  -0.012524059747200   0.009779847731994   0.000711159671248 1
force Na  -0.054415165909438  -0.016934585093035   0.043996585723789 1
force Na   0.004012752984234   0.030426392123818   0.000792878939941 1
force Na  -0.001209646536251   0.022235428733142   0.041109610667110 1
force Na  -0.037896261199834  -0.004023098663506   0.021310260975492 1
force Na   0.042321722987735  -0.007852807456485   0.007765146219852 1
force Na   0.018561699579667  -0.032612039721930   0.045253780305853 1
force Na   0.001895331310464   0.062573988036201  -0.071054352632568 1
force Na  -0.025949145714402   0.035567967644245   0.012036006758576 1
force Na  -0.032374874677227   0.016741285514110   0.028898219308181 1
force Na  -0.003740864568494  -0.039734605105804   0.017823612353834 1
force Na  -0.021122074917988   0.057697766705135   0.036528232097173 1
force Na  -0.006504198656601  -0.008931063951078   0.023370607880528 1
force Na   0.023302957035039  -0.024253215886698  -0.005556737121237 1
force Na   0.017173565821861   0.017775100681601   0.001016131630746 1
force Na   0.078340824996813  -0.031124927973667  -0.073233283917734 1
force Na   0.021671827684064  -0.059715980409987  -0.017285670707360 1
force Na  -0.019858824689373  -0.002107184126173   0.000322669732313 1
force Na  -0.015956931201657   0.006361821929553   0.020052213916368 1
force Na  -0.086576250859301  -0.052831877927233  -0.007402672650070 1
force Na   0.090934065242655   0.039683154876127   0.063547030294450 1
force Na   0.033971349753145  -0.074161058550809   0.027676767837044 1
force Na   0.001470843891627  -0.020818959125569  -0.020667833524045 1
force Na  -0.008610273142650  -0.011736443679205   0.017661694192772 1
force Na  -0.036272201547521   0.004871694209998  -0.019238815964617 1
force Na   0.032537772081743  -0.001280339164115  -0.032946578349531 1
force Cl   0.015997239715103  -0.068372188228475  -0.041243031634346 1
force Cl   0.090157685491452   0.015487022985013   0.074927966231865 1
force Cl   0.018441444965609   0.058743283991481   0.032025610835484 1
force Cl  -0.007447374807938  -0.020987700581215  -0.035875383171281 1
force Cl  -0.021602633120273  -0.009632164242010  -0.011555757245394 1
force Cl  -0.006257647443720   0.030784328488436  -0.016040671249208 1
force Cl   0.007780374790211  -0.040808710085495   0.020962835852440 1
force Cl  -0.044671052615305  -0.013776314838892   0.002848886274471 1
force Cl   0.077277580669682   0.061501360129742  -0.030472093350687 1
force Cl  -0.005394747689206  -0.033145489127922  -0.029228447134255 1
force Cl  -0.032316310076966  -0.000406552114964   0.041968475727258 1
force Cl  -0.035032797799302   0.045592280668378  -0.056642789925217 1
force Cl  -0.032427696540156   0.016785397686148   0.047259287252925 1
force Cl   0.022448612767348   0.004317084625674   0.005975604181267 1
force Cl   0.009845666034116   0.011337767987287  -0.033104797484617 1
force Cl  -0.043772446108727  -0.092516993583407  -0.056823056861182 1
force Cl   0.004169612964575   0.013012257977838   0.032003014646008 1
force Cl  -0.095547177306071  -0.014801829761616   0.060730911770905 1
force Cl  -0.005258859728411  -0.000527274537816  -0.005823325965513 1
force Cl   0.065487678687441   0.046227153691514  -0.027970992490087 1
force Cl  -0.045338518957016   0.021468828784046   0.022884187061726 1
force Cl  -0.030951762143239   0.038266383639224   0.026384412103831 1
force Cl   0.028219113235171  -0.012314638116473  -0.010429237002238 1
force Cl   0.029394719439844   0.004445139290891   0.041732281939172 1
force Cl   0.041373049978060  -0.001498169824025  -0.068104254790744 1
force Cl  -0.031597936454524  -0.060232121783811  -0.020204588766976 1
force Cl  -0.017149482145303   0.026591646024188  -0.004735525417128 1
force Cl   0.004725154677167  -0.030841503184611  -0.000148973976352 1
force Cl  -0.031144540521563   0.032252434970746   0.017817862346898 1
force Cl   0.003649720976348   0.042626068531801   0.019442526986789 1
force Cl   0.041420373726868  -0.008841024993539  -0.031641947764339 1
force Cl   0.013743524706825  -0.000269609381861  -0.043367236987403 1

# Energy components:
   Eewald =    -1369.8397398074555440
       EH =      586.4245227918139562
     Eloc =      867.1474954336721339
      Enl =    -2225.9479920604985637
     EvdW =       -0.8906398215723453
      Exc =     -389.3893278780764717
 Exc_core =       51.9094028337355553
       KE =      473.2756949070122801
-------------------------------------
     Etot =    -2007.3105836013692169


Dumping 'md.ionpos' ... done
Dumping 'md.lattice' ... done

#--- Lowdin population analysis ---
# oxidation-state Na +0.697 +0.696 +0.700 +0.699 +0.698 +0.699 +0.703 +0.698 +0.691 +0.704 +0.702 +0.696 +0.695 +0.705 +0.693 +0.699 +0.702 +0.698 +0.701 +0.696 +0.704 +0.699 +0.697 +0.705 +0.701 +0.700 +0.703 +0.695 +0.695 +0.698 +0.698 +0.698
# oxidation-state Cl -0.630 -0.642 -0.636 -0.625 -0.639 -0.634 -0.637 -0.622 -0.634 -0.629 -0.631 -0.641 -0.631 -0.643 -0.634 -0.649 -0.635 -0.635 -0.622 -0.638 -0.628 -0.618 -0.641 -0.629 -0.636 -0.643 -0.619 -0.622 -0.635 -0.631 -0.637 -0.636


-------- Electronic minimization -----------
ElecMinimize: Iter:   0  Etot: -2007.315657243678288  |grad|_K:  8.337e-06  alpha:  1.000e+00
ElecMinimize: Iter:   1  Etot: -2007.315872693446181  |grad|_K:  3.781e-06  alpha:  5.667e-01  linmin: -6.137e-06  t[s]:     87.38
ElecMinimize: Iter:   2  Etot: -2007.315910564001797  |grad|_K:  2.251e-06  alpha:  4.843e-01  linmin:  1.630e-06  t[s]:     89.67
ElecMinimize: Iter:   3  Etot: -2007.315923086358680  |grad|_K:  1.397e-06  alpha:  4.520e-01  linmin: -1.297e-06  t[s]:     91.97
ElecMinimize: Iter:   4  Etot: -2007.315929631821291  |grad|_K:  9.468e-07  alpha:  6.132e-01  linmin: -9.010e-08  t[s]:     94.23
ElecMinimize: Iter:   5  Etot: -2007.315932107222807  |grad|_K:  6.583e-07  alpha:  5.048e-01  linmin: -7.902e-08  t[s]:     96.50
ElecMinimize: Iter:   6  Etot: -2007.315933594963553  |grad|_K:  3.540e-07  alpha:  6.277e-01  linmin: -2.254e-06  t[s]:     98.77
ElecMinimize: Iter:   7  Etot: -2007.315934075057157  |grad|_K:  2.361e-07  alpha:  7.006e-01  linmin: -1.616e-06  t[s]:    101.02
ElecMinimize: Iter:   8  Etot: -2007.315934294121917  |grad|_K:  1.537e-07  alpha:  7.184e-01  linmin:  1.992e-06  t[s]:    103.29
ElecMinimize: Iter:   9  Etot: -2007.315934392978079  |grad|_K:  9.654e-08  alpha:  7.649e-01  linmin:  3.370e-05  t[s]:    105.53
ElecMinimize: Iter:  10  Etot: -2007.315934426248759  |grad|_K:  8.012e-08  alpha:  6.526e-01  linmin:  6.914e-05  t[s]:    107.80
ElecMinimize: Converged (|Delta Etot|<1.000000e-07 for 2 iters).
Setting wave functions to eigenvectors of Hamiltonian

IonicDynamics: Step:   1  PE: -2007.315934  KE:   0.094524  T[K]:  315.854  P[Bar]:      nan  tMD[fs]:      1.00  t[s]:    112.38

# Ionic positions in cartesian coordinates:
ion Na  17.802458582771852  13.873973502305299  18.920057433200231 v  -0.000171296555329   0.000185793718307   0.000147224275296 1
ion Na  11.538732944085668  14.004497449412426  13.359414284104160 v  -0.000008418360411  -0.000080585584345   0.000102910396675 1
ion Na  10.861793706844070  12.307788135488945   7.607301307028900 v   0.000206941734214  -0.000036786760010  -0.000048875086255 1
ion Na  13.773966901638996  19.545604516658543  16.949556422769788 v  -0.000027406281293   0.000059582659985  -0.000102773929761 1
ion Na  20.720017815797096   7.998534281762129  20.530266417315548 v   0.000151505471780  -0.000077734268215  -0.000006050080555 1
ion Na   6.521388789497760  15.184534218829839  12.593321022838625 v  -0.000265422565779  -0.000033513776868   0.000010232927658 1
ion Na  21.883322820298204  10.491793072826610  13.797831626356411 v  -0.000135808302731  -0.000104082379842   0.000027134362837 1
ion Na   8.655708376150429  21.653752299927497  15.690826190024692 v   0.000124978860331  -0.000219053177447   0.000141310341809 1
ion Na  13.043308922353040  18.815673649063417  11.539856922556995 v   0.000244616524513  -0.000005588624381  -0.000146507946606 1
ion Na  15.751259387355411   9.466047261056804  19.932920437093156 v   0.000035420735489  -0.000206832337565  -0.000009829427956 1
ion Na   7.650071431932305  17.324766444352534  17.612185770166718 v  -0.000052163094068   0.000014943034400   0.000257923785608 1
ion Na  18.223880863252379  17.446914400315762  11.831378983243452 v   0.000246799348393  -0.000184434710398   0.000095648803669 1
ion Na  23.059397793458135  14.326879649828177   6.552479841516451 v  -0.000282561180125  -0.000242549947718  -0.000026310176277 1
ion Na  20.187747254931473  22.695076338011152  15.994366836720220 v  -0.000396213469642  -0.000146604203533  -0.000119228877545 1
ion Na  16.690437836059754  12.133704934076590  13.858269383177610 v  -0.000113272013996   0.000010270247395   0.000060114971540 1
ion Na   9.382763516018743   7.681078015106773   9.058140220878361 v  -0.000008131986452  -0.000018074326281   0.000125682535189 1
ion Na  15.814084461688990  11.586115763858377   8.148819526474414 v  -0.000354150967860  -0.000114731725848   0.000017069616811 1
ion Na  11.633888524463014  12.288271978128561  18.615711657392296 v   0.000012514608054  -0.000037206397358   0.000061457277012 1
ion Na  22.320772522393675  12.268866836737448  18.789128401297617 v  -0.000215438245310   0.000194435937324  -0.000009532649447 1
ion Na  14.361280020644021   6.738515570232081   9.878067936662909 v   0.000096372765216  -0.000331393691939  -0.000117378524619 1
ion Na  17.664313969568258  15.625329940065614   6.839616730013720 v   0.000262151254329   0.000124581699618  -0.000106462693173 1
ion Na  15.245819549051133   7.458646063429754  15.253949627524021 v  -0.000240103643458  -0.000131187817490  -0.000259576392925 1
ion Na   9.605412482998105   9.870292848138325  14.115168699262229 v  -0.000019648365155   0.000019814195994  -0.000142516389186 1
ion Na  20.006645560043228  21.729211510008319  10.298692415821128 v   0.000074891702265   0.000031144332875   0.000087526957143 1
ion Na   7.737324257869080  19.175051930938942  22.368172875274897 v   0.000209978777297  -0.000142331991661  -0.000184952995186 1
ion Na  19.338146360179135  18.687097475775929  17.592010368202079 v  -0.000388082423258  -0.000304989916683   0.000137584421573 1
ion Na  12.157389809163307  17.497983253488997  22.632344081513519 v   0.000072354535400   0.000461920037318   0.000159820818115 1
ion Na  21.112873470931479   9.787612407855866   8.597113496142192 v  -0.000080605930986   0.000310402851843   0.000040080318954 1
ion Na   7.834775857882034  19.915094764797914  11.103160714954342 v  -0.000273964885639   0.000031499846507  -0.000082668399880 1
ion Na  14.148736923510118  22.103651912012328  21.721881436175053 v   0.000149036838920  -0.000025864490864   0.000092196176972 1
ion Na   9.161284856694039   6.720641900938488  20.807188321364581 v   0.000052826226118  -0.000177477399688   0.000259300465371 1
ion Na  19.286810532443134  20.057991325760486  22.693461557687282 v  -0.000227674134233  -0.000231464181893   0.000036614134133 1
ion Cl  18.103129146269573   8.627924249734336  12.159637548592690 v  -0.000019052611930  -0.000165479262914  -0.000193052500654 1
ion Cl  22.197352443676053  20.938098787022035  18.999251988214226 v   0.000029290648757  -0.000028701672862   0.000122113421699 1
ion Cl  19.448851655422541  13.072393297566220  10.276273837661721 v  -0.000004105111696   0.000184723449847   0.000065460412495 1
ion Cl  16.683236751982609  20.742511347397055  14.074170011499774 v  -0.000159000333776   0.000101055297034  -0.000225547384618 1
ion Cl  17.200988774443523  22.685135779127634  18.917505736676109 v  -0.000102290012500  -0.000141712643519   0.000064560495708 1
ion Cl  21.173266642815058  16.108609973928051  20.570838424873962 v   0.000067018389968   0.000007178392089  -0.000036542282066 1
ion Cl  15.951146190256130  18.237149785495426  20.338263178606152 v   0.000058097442350   0.000138407909360   0.000077185131161 1
ion Cl  14.524076497131139  13.496609669687144  21.724624833256001 v   0.000177334660730  -0.000124109502011  -0.000073349871158 1
ion Cl  12.035553091743823   8.381482042650203  23.203809484599343 v   0.000102723788342   0.000156624970845  -0.000058878097270 1
ion Cl  11.046866170954999  21.039417953920118   8.173396018478819 v   0.000109662095160   0.000038928506577  -0.000064314974541 1
ion Cl  16.241562222169868  19.761760583121042   8.266694178126063 v  -0.000082975002067   0.000130967823032  -0.000135721393413 1
ion Cl  19.473321710196419  11.605609266563135  22.559054220851007 v   0.000017533162361   0.000041387081458   0.000256541934718 1
ion Cl  17.702519704364704   7.168971817851578   6.521423458482477 v  -0.000035861560654   0.000102669728690  -0.000107088244100 1
ion Cl   9.961198710281371  17.763574486215003  14.297006135888216 v   0.000055398370484  -0.000051847787837   0.000064462066993 1
ion Cl   7.613423332727602  11.472646414526523  10.728056565085103 v   0.000132944553753  -0.000029800127608  -0.000056260290289 1
ion Cl   9.385858892210669  15.479562509192542  21.088207206101426 v   0.000166608389720   0.000069046568259  -0.000159427487388 1
ion Cl   6.886701935758689   8.141705048180153  17.016485442780883 v   0.000110903540287   0.000069061294920   0.000050554224187 1
ion Cl  12.525404224657796   8.745849428159037  17.288806479852482 v  -0.000052724485687   0.000162271644838  -0.000037619484748 1
ion Cl  13.104817802591787  10.473121369934882  11.548913839933300 v   0.000152905302339   0.000097939926443  -0.000207767219158 1
ion Cl  11.457804945513443  22.551304803855107  13.186054829637513 v   0.000081860696128   0.000121413259528  -0.000065802442779 1
ion Cl  10.871379623814175  20.256745234647038  19.345659526911327 v   0.000072633083297   0.000025920873045   0.000024472745180 1
ion Cl  21.816400109157534  17.643973724886465   8.662151643932365 v  -0.000153853505206   0.000048179054068   0.000185941369925 1
ion Cl   9.521652628960560  16.141067607660258   9.314668262826300 v   0.000134910290905  -0.000045593030379   0.000143950870582 1
ion Cl  22.681686069516502  22.781107286841721   6.569943633212812 v   0.000015185392813   0.000121949976880   0.000006116441239 1
ion Cl  21.800756546676674  19.122711401319528  14.327349780785823 v   0.000143459964762   0.000022739186508   0.000019885300926 1
ion Cl  14.899620293963254  15.390452908320288  10.585169667614229 v   0.000012349445844  -0.000195462142005  -0.000086916876524 1
ion Cl  18.981649686402228   9.858700664461034  17.044397944989893 v   0.000142730871440   0.000059937139394   0.000020586850341 1
ion Cl  14.358902276210705  15.353794603812775  16.318982320923666 v   0.000013133576546   0.000172336395424   0.000087456305898 1
ion Cl  23.504406683865287   6.542778938392926  11.944381992619478 v  -0.000138020336138   0.000061756168742   0.000109589018689 1
ion Cl   8.182107628623235  13.077474821561877  16.072975698684591 v   0.000082414906950   0.000123169287925  -0.000014175076521 1
ion Cl   7.247649215016096  10.490872291936627  22.482024441327436 v   0.000185479785234   0.000068153988918  -0.000039182447974 1
ion Cl  19.931482290657925  14.758478250842371  15.504340722221247 v   0.000003277624890   0.000064987393771  -0.000234399533533 1

# Forces in Cartesian coordinates:
force Na  -0.023410832344465  -0.004328703762927   0.015071496256381 1
force Na  -0.002360342672140  -0.006115422087754  -0.023123572808089 1
force Na   0.012475363157864   0.015953659363478  -0.003117177582595 1
force Na   0.029077346515138   0.010444601233325  -0.061640535097815 1
force Na   0.023464346477478  -0.010477820447817  -0.007269225539663 1
force Na  -0.027407894729346   0.019838955355058  -0.008320829708318 1
force Na  -0.011499111701208   0.010214414061440  -0.000075894597048 1
force Na  -0.054373066936869  -0.015398350971724   0.043355750846635 1
force Na   0.002780650340788   0.030384326454127   0.001694080487760 1
force Na  -0.001088958166042   0.022866240053363   0.040777552620655 1
force Na  -0.037520183080547  -0.003649203468738   0.019393577795024 1
force Na   0.040458464705570  -0.007106848318678   0.007531475311484 1
force Na   0.019791726717508  -0.030539048335747   0.046135657968294 1
force Na   0.003706282488571   0.062139676717454  -0.069520563109735 1
force Na  -0.025393981592956   0.034520526321558   0.011973691656909 1
force Na  -0.031722497618589   0.016626402104259   0.028148006183432 1
force Na  -0.001604074041323  -0.038970732399226   0.017382985142729 1
force Na  -0.021495095264879   0.059050886685904   0.037142182890450 1
force Na  -0.005207870707483  -0.009529606289107   0.022843690064959 1
force Na   0.022902013928828  -0.022635823200201  -0.005012882620993 1
force Na   0.016014846414187   0.016904519854081   0.001484106213340 1
force Na   0.078811831055218  -0.030664106862470  -0.072705740870477 1
force Na   0.021973416630745  -0.059801711682685  -0.016782428064056 1
force Na  -0.020429974390105  -0.002437006456993  -0.000275814373414 1
force Na  -0.017684320220935   0.007755051549520   0.021539598955766 1
force Na  -0.082749982940823  -0.050115036526391  -0.009029935765470 1
force Na   0.089953359431916   0.037144366761255   0.062842336757029 1
force Na   0.035652896378098  -0.076290370128748   0.029021490224894 1
force Na   0.002986441707178  -0.021001647206604  -0.020598640368104 1
force Na  -0.009940292385220  -0.011128213961483   0.018065900183442 1
force Na  -0.036687573157907   0.005159364464749  -0.019624872536933 1
force Na   0.035306516950170   0.000190945111082  -0.033326554686674 1
force Cl   0.015581377881196  -0.066635578792005  -0.040104122714576 1
force Cl   0.087068823224389   0.015042949186917   0.072196507670366 1
force Cl   0.017505375616387   0.058057147943674   0.032571446636242 1
force Cl  -0.006594872363547  -0.022635976911467  -0.036008691804574 1
force Cl  -0.020777710196431  -0.008326983816822  -0.013492397434708 1
force Cl  -0.006289813636623   0.031086515331867  -0.015943878303368 1
force Cl   0.005934958806245  -0.042618546319347   0.020877821099583 1
force Cl  -0.045556816373981  -0.012573557548556   0.003107400262659 1
force Cl   0.076872874147384   0.060297573922665  -0.029893272328679 1
force Cl  -0.006787337729256  -0.032846464712257  -0.028479211641368 1
force Cl  -0.032495058763495  -0.001658216033454   0.044106428925015 1
force Cl  -0.035848484609104   0.045829115325861  -0.059753235936264 1
force Cl  -0.031719727524434   0.016407497292408   0.047468248418060 1
force Cl   0.022262299188817   0.005015628462648   0.005076109511909 1
force Cl   0.008743695856547   0.011788083369605  -0.032831842209920 1
force Cl  -0.042216720055269  -0.093304184332541  -0.054439225701857 1
force Cl   0.004220610559387   0.011669608569449   0.031977979215125 1
force Cl  -0.094614378217810  -0.015626441515602   0.060242387187766 1
force Cl  -0.006325871684429  -0.002127507320906  -0.004909271558476 1
force Cl   0.063686570042336   0.045288760349727  -0.027746030761409 1
force Cl  -0.044924114281229   0.021979604488752   0.022726811375267 1
force Cl  -0.029326469785257   0.037232826272392   0.024482675287242 1
force Cl   0.027042856674691  -0.011965461710804  -0.011255309490644 1
force Cl   0.029082303686391   0.002916091435560   0.042164050682788 1
force Cl   0.039864257461394  -0.001290580989966  -0.065748116390994 1
force Cl  -0.030772919090576  -0.058180017986758  -0.020012368464395 1
force Cl  -0.018615715510282   0.025825125994364  -0.004427840130602 1
force Cl   0.004804055062286  -0.031438649603861  -0.000639047905201 1
force Cl  -0.030234715201709   0.032399061957283   0.017913838965287 1
force Cl   0.002447027269971   0.041702506624908   0.020161145671445 1
force Cl   0.040959982107241  -0.009108789853053  -0.032215853493025 1
force Cl   0.012557731718254  -0.001309531161804  -0.041050713752298 1

# Energy components:
   Eewald =    -1370.0106134751106310
       EH =      586.2584230487810828
     Eloc =      867.4798475482349431
      Enl =    -2225.9391968746904240
     EvdW =       -0.8908154124609100
      Exc =     -389.3852450242468990
 Exc_core =       51.9094028917429000
       KE =      473.2622628715014343
-------------------------------------
     Etot =    -2007.3159344262487593


Dumping 'md.ionpos' ... done
Dumping 'md.lattice' ... done

#--- Lowdin population analysis ---
# oxidation-state Na +0.697 +0.696 +0.700 +0.699 +0.698 +0.699 +0.703 +0.698 +0.691 +0.704 +0.702 +0.696 +0.695 +0.705 +0.693 +0.699 +0.702 +0.698 +0.701 +0.696 +0.704 +0.699 +0.697 +0.705 +0.701 +0.700 +0.703 +0.695 +0.695 +0.698 +0.698 +0.698
# oxidation-state Cl -0.631 -0.642 -0.637 -0.625 -0.639 -0.634 -0.637 -0.622 -0.634 -0.629 -0.631 -0.641 -0.631 -0.643 -0.634 -0.649 -0.635 -0.635 -0.622 -0.638 -0.628 -0.618 -0.641 -0.629 -0.636 -0.643 -0.619 -0.622 -0.635 -0.631 -0.637 -0.636


-------- Electronic minimization -----------
ElecMinimize: Iter:   0  Etot: -2007.224380364614717  |grad|_K:  2.352e-04  alpha:  1.000e+00
ElecMinimize: Iter:   1  Etot: -2007.321064645697106  |grad|_K:  4.368e-05  alpha:  3.199e-01  linmin: -1.475e-03  t[s]:    120.05
ElecMinimize: Iter:   2  Etot: -2007.326374088408329  |grad|_K:  1.836e-05  alpha:  5.085e-01  linmin:  2.693e-04  t[s]:    122.32
ElecMinimize: Iter:   3  Etot: -2007.327110766615533  |grad|_K:  1.074e-05  alpha:  3.997e-01  linmin: -4.514e-05  t[s]:    124.59
ElecMinimize: Iter:   4  Etot: -2007.327430602214008  |grad|_K:  5.583e-06  alpha:  5.065e-01  linmin:  1.026e-04  t[s]:    126.87
ElecMinimize: Iter:   5  Etot: -2007.327520836465283  |grad|_K:  4.320e-06  alpha:  5.293e-01  linmin: -1.627e-05  t[s]:    129.15
ElecMinimize: Iter:   6  Etot: -2007.327578522994372  |grad|_K:  2.524e-06  alpha:  5.650e-01  linmin:  9.048e-06  t[s]:    131.42
ElecMinimize: Iter:   7  Etot: -2007.327609234345800  |grad|_K:  1.567e-06  alpha:  8.812e-01  linmin: -1.687e-06  t[s]:    133.71
ElecMinimize: Iter:   8  Etot: -2007.327618189857731  |grad|_K:  9.391e-07  alpha:  6.669e-01  linmin:  5.238e-08  t[s]:    136.00
ElecMinimize: Iter:   9  Etot: -2007.327621351314292  |grad|_K:  5.677e-07  alpha:  6.554e-01  linmin:  5.954e-07  t[s]:    138.27
ElecMinimize: Iter:  10  Etot: -2007.327622362440025  |grad|_K:  3.904e-07  alpha:  5.736e-01  linmin:  5.384e-07  t[s]:    140.54
ElecMinimize: Iter:  11  Etot: -2007.327622750508681  |grad|_K:  2.604e-07  alpha:  4.654e-01  linmin: -3.532e-07  t[s]:    142.80
ElecMinimize: Iter:  12  Etot: -2007.327622954435810  |grad|_K:  1.472e-07  alpha:  5.499e-01  linmin: -2.125e-05  t[s]:    145.06
ElecMinimize: Iter:  13  Etot: -2007.327623027430036  |grad|_K:  1.087e-07  alpha:  6.160e-01  linmin:  2.725e-05  t[s]:    147.33
ElecMinimize: Iter:  14  Etot: -2007.327623063868032  |grad|_K:  6.604e-08  alpha:  5.643e-01  linmin:  9.538e-06  t[s]:    149.59
ElecMinimize: Converged (|Delta Etot|<1.000000e-07 for 2 iters).
Setting wave functions to eigenvectors of Hamiltonian

IonicDynamics: Step:   2  PE: -2007.327623  KE:   0.106181  T[K]:  354.808  P[Bar]:      nan  tMD[fs]:      2.00  t[s]:    154.26

# Ionic positions in cartesian coordinates:
ion Na  17.794896730023890  13.881571935254295  18.926442907704136 v  -0.000193529105300   0.000181666287928   0.000160652153854 1
ion Na  11.538333946824682  14.001046962409642  13.363188914430040 v  -0.000010615514523  -0.000086293602323   0.000079697856761 1
ion Na  10.870600511331459  12.306598369579810   7.605208873543026 v   0.000218761385058  -0.000020333918825  -0.000052286077098 1
ion Na  13.773423973340860  19.548286458081112  16.944042369029468 v   0.000001000823918   0.000070241495167  -0.000163563288556 1
ion Na  20.726756888795588   7.995112717063655  20.529859762712004 v   0.000174136036574  -0.000087362206870  -0.000013679090582 1
ion Na   6.509854132789466  15.183558988821213  12.593566086582360 v  -0.000292002515364  -0.000013903343211   0.000001465703334 1
ion Na  21.877470996282579  10.487704182780712  13.798943543693881 v  -0.000146764086627  -0.000093553724978   0.000026296134451 1
ion Na   8.659763595656770  21.644388081255673  15.697543927429916 v   0.000071564547555  -0.000233155083505   0.000182987138702 1
ion Na  13.053475566536601  18.816067917176731  11.533826320320719 v   0.000246652319203   0.000024410266194  -0.000144829872373 1
ion Na  15.752698683758496   9.457968533884113  19.933337275881932 v   0.000034218512468  -0.000183828187865   0.000029677860295 1
ion Na   7.647147012020403  17.325315531152732  17.623235847456794 v  -0.000089093338953   0.000011800536509   0.000275576674884 1
ion Na  18.234906048414093  17.439150431254625  11.835478505962945 v   0.000285452488589  -0.000190921190762   0.000102521610054 1
ion Na  23.048117065052512  14.316235303712475   6.552324602316079 v  -0.000262735057968  -0.000271275028066   0.000019130416623 1
ion Na  20.171439981399903  22.690288361533458  15.988011828722845 v  -0.000391726858164  -0.000085697903747  -0.000187054654919 1
ion Na  16.685234358572586  12.134839172280742  13.860990471063420 v  -0.000138141780802   0.000043842399939   0.000071399422427 1
ion Na   9.381777625010685   7.680675565028684   9.063901777427999 v  -0.000039007316811  -0.000001553457842   0.000152445925254 1
ion Na  15.799407824649386  11.580583665584905   8.149871362831096 v  -0.000354796022794  -0.000152474033754   0.000033501640444 1
ion Na  11.633964742188290  12.287943672810528  18.619001456568959 v  -0.000008972892091   0.000021685881714   0.000097855005771 1
ion Na  22.311756973779850  12.276716497674354  18.789191814344782 v  -0.000220086788039   0.000185017014123   0.000012270832396 1
ion Na  14.365728365093398   6.724359458767295   9.873104820988146 v   0.000118541245730  -0.000352622242774  -0.000122466099064 1
ion Na  17.675475386189220  15.630830757317558   6.835237371932604 v   0.000277140296980   0.000140987448460  -0.000105136642229 1
ion Na  15.237497570871971   7.452603030700946  15.241727510428326 v  -0.000163305952330  -0.000160401332475  -0.000330671285951 1
ion Na   9.605045419168531   9.869898292180967  14.108926353258312 v   0.000001815676068  -0.000038699479465  -0.000159107464075 1
ion Na  20.009322251771241  21.730455099037396  10.302296969370550 v   0.000054340546021   0.000028850705791   0.000086551459235 1
ion Na   7.745641622400364  19.169331599752528  22.360957578043966 v   0.000191656797016  -0.000133959093084  -0.000163393470112 1
ion Na  19.320412278661877  18.673472595472081  17.597505858104647 v  -0.000467411666654  -0.000352342927308   0.000127407104438 1
ion Na  12.162212471841869  17.517842818199636  22.640224424484021 v   0.000159663918003   0.000497045479674   0.000220650115340 1
ion Na  21.110265280093426   9.798894960883569   8.599353950925561 v  -0.000045059928432   0.000234758467363   0.000068767297840 1
ion Na   7.823507830306195  19.915974493881556  11.099314749496873 v  -0.000270437024122   0.000011104554231  -0.000103295272444 1
ion Na  14.154692775446076  22.102361452810928  21.726053033298658 v   0.000138450751515  -0.000036279213874   0.000109759372456 1
ion Na   9.162717817560010   6.713415680825190  20.817499675123180 v   0.000016437985128  -0.000171900714019   0.000239537337482 1
ion Na  19.278115276855299  20.048431905298404  22.694287357238242 v  -0.000191824947233  -0.000230256653513   0.000003312456029 1
ion Cl  18.102544677682520   8.620207719748652  12.151117888671617 v  -0.000009379847032  -0.000207086291180  -0.000218717639153 1
ion Cl  22.199711831339933  20.937116866805749  19.005246673315469 v   0.000083380064070  -0.000019079593925   0.000166626435471 1
ion Cl  19.448910578082749  13.080803442516560  10.279402446812641 v   0.000006673795648   0.000221661017210   0.000085946390600 1
ion Cl  16.676573415416094  20.746395529693253  14.064361122358472 v  -0.000163021196978   0.000086248542278  -0.000249033494448 1
ion Cl  17.196482380638610  22.679172809159070  18.919988039219437 v  -0.000115412138098  -0.000146351984129   0.000054914884172 1
ion Cl  21.175951264672044  16.109323529186575  20.569108583688138 v   0.000062882667782   0.000027327893453  -0.000046992510803 1
ion Cl  15.953623656205128  18.242313946338140  20.341721878775505 v   0.000061063910816   0.000110886779415   0.000090087076283 1
ion Cl  14.530802517125446  13.491318285278400  21.721625231062170 v   0.000147807755132  -0.000131503670391  -0.000071578248004 1
ion Cl  12.040813485140202   8.388760183048417  23.200971797100603 v   0.000151372892481   0.000194911514278  -0.000078116347660 1
ion Cl  11.051307163416796  21.040598715912637   8.170352261145380 v   0.000104669795745   0.000018441564484  -0.000082651936971 1
ion Cl  16.237699398785423  19.767158779552652   8.261658182183849 v  -0.000103843601822   0.000129756917434  -0.000107343391622 1
ion Cl  19.473569690051125  11.607931997640787  22.568861592227400 v  -0.000005691004671   0.000070855681209   0.000217187451107 1
ion Cl  17.700614867605267   7.173439015339630   6.517615649662694 v  -0.000056000002263   0.000113274919416  -0.000077136140941 1
ion Cl   9.963780489525302  17.761503082406222  14.299729900862761 v   0.000069384764614  -0.000048152870062   0.000067077831954 1
ion Cl   7.619032221081374  11.471576043548408  10.725288244576385 v   0.000138014566270  -0.000021840697265  -0.000077481832988 1
ion Cl   9.392185639558884  15.481188960027229  21.080888097181528 v   0.000140350435670   0.000009829929584  -0.000193572521087 1
ion Cl   6.891339809511783   8.144720177668011  17.018989962196059 v   0.000113430107908   0.000076416366476   0.000070547995859 1
ion Cl  12.521970594618464   8.752357065573154  17.288039517609853 v  -0.000112506787602   0.000152098785541   0.000000030006324 1
ion Cl  13.111052630633434  10.477147942290706  11.540251235304654 v   0.000148368986846   0.000096277464341  -0.000210991237574 1
ion Cl  11.462028467337081  22.556928781982933  13.182959273183446 v   0.000121561838542   0.000150225076379  -0.000083662336322 1
ion Cl  10.873785502947571  20.258113209022820  19.346963473830918 v   0.000044120764789   0.000040261444549   0.000038438883212 1
ion Cl  21.809648969347531  17.646463576602880   8.670154143495820 v  -0.000172220543294   0.000071855755163   0.000200532096989 1
ion Cl   9.527584753631661  16.139030242943015   9.320462253605948 v   0.000151629766458  -0.000052853562068   0.000136101757002 1
ion Cl  22.682695570012420  22.786193159248668   6.570745724171683 v   0.000033481755578   0.000123621920285   0.000032841897113 1
ion Cl  21.807211664163571  19.123640138435576  14.327294171332140 v   0.000168190501219   0.000022297489785  -0.000021579504204 1
ion Cl  14.899721086122906  15.381608652902193  10.581303473771738 v  -0.000007179920121  -0.000231588484063  -0.000100011275952 1
ion Cl  18.987301380723885   9.861525767412877  17.045182177365938 v   0.000130172051853   0.000076449778334   0.000017479594683 1
ion Cl  14.359505920204358  15.360509246813029  16.322581127731514 v   0.000016046260555   0.000152323280410   0.000086496004292 1
ion Cl  23.498298099281058   6.545766169758630  11.949141121253312 v  -0.000157177328700   0.000082668819120   0.000120695609473 1
ion Cl   8.185544291010938  13.083123975236914  16.072647965715312 v   0.000083454727419   0.000149630370936  -0.000001581706386 1
ion Cl   7.255855978404981  10.493575159114227  22.479970287514725 v   0.000211304746931   0.000062487036313  -0.000060326284957 1
ion Cl  19.931781003033922  14.761153336324526  15.494099202357454 v   0.000010747680633   0.000064051607859  -0.000260207806128 1

# Forces in Cartesian coordinates:
force Na  -0.021329661232730  -0.004548938802621   0.012950202898637 1
force Na  -0.001760360088873  -0.005966706083269  -0.023139565939700 1
force Na   0.011821624912972   0.016893170686802  -0.003000271670459 1
force Na   0.028849070756857   0.010655452586675  -0.060805901110774 1
force Na   0.022750704319004  -0.009551560627564  -0.007399841963119 1
force Na  -0.026146523174433   0.019409582283192  -0.008655855122465 1
force Na  -0.010378849871926   0.010621711991528  -0.000825532293842 1
force Na  -0.053585378076437  -0.013701558149305   0.041937846584920 1
force Na   0.001680533477491   0.029925783905793   0.002506048225439 1
force Na  -0.001014619847938   0.023262722445231   0.040117579823746 1
force Na  -0.037018438623690  -0.003231585532413   0.017193914259953 1
force Na   0.038240778854409  -0.006553535630927   0.007200460950851 1
force Na   0.020737592983398  -0.028207905688930   0.046788664982957 1
force Na   0.005723690866202   0.060832160200729  -0.067191518399039 1
force Na  -0.024693209246675   0.033034020572242   0.011702419110844 1
force Na  -0.030540381535806   0.016358346498763   0.026910128471432 1
force Na   0.000630099418323  -0.038057761942912   0.016729322124648 1
force Na  -0.021734883206475   0.059837721696957   0.037448624100139 1
force Na  -0.003882780915921  -0.010076016549637   0.022158719417914 1
force Na   0.022376206522419  -0.020912655945546  -0.004503674672784 1
force Na   0.014707771232372   0.015846835110613   0.002002329968656 1
force Na   0.077221730754662  -0.029073100259168  -0.070634150484790 1
force Na   0.021876622576035  -0.059338683560847  -0.016056342825311 1
force Na  -0.020901659089610  -0.002722780631255  -0.000903912944375 1
force Na  -0.019127878656653   0.008710491059255   0.022968212219616 1
force Na  -0.077748430247950  -0.046398210537933  -0.010805573288255 1
force Na   0.087391621021508   0.033559322165022   0.061281067808707 1
force Na   0.036746931790041  -0.077580849594712   0.029936531214794 1
force Na   0.004499760576182  -0.020857482320533  -0.020422312618199 1
force Na  -0.011188145981420  -0.010496294865102   0.018339746545654 1
force Na  -0.036752189060337   0.005637132013619  -0.019644923235920 1
force Na   0.037707987804162   0.001747515499079  -0.033391317557103 1
force Cl   0.015175018509793  -0.064233599578933  -0.038906603001510 1
force Cl   0.082554967318550   0.014254218971417   0.068202763568957 1
force Cl   0.016709343666826   0.056641117827403   0.032707981006170 1
force Cl  -0.005461470003033  -0.024442908625897  -0.036189362760416 1
force Cl  -0.019733470180348  -0.006963770592406  -0.015433732886953 1
force Cl  -0.006125632080722   0.031124339606745  -0.015497864812991 1
force Cl   0.003854392539530  -0.044211471605805   0.020690343136676 1
force Cl  -0.046243442062084  -0.011330087525795   0.003662128925980 1
force Cl   0.075741938252170   0.058618227163241  -0.029023970521314 1
force Cl  -0.008306172330281  -0.031991364970950  -0.027620180037383 1
force Cl  -0.032235252727501  -0.002913633827825   0.045847186290342 1
force Cl  -0.036246440971718   0.045517635650498  -0.062056837900307 1
force Cl  -0.030727765289684   0.015963341910245   0.047406749952133 1
force Cl   0.021980536298069   0.005750438912665   0.004332605028437 1
force Cl   0.007622326132838   0.012310861251359  -0.032286107631558 1
force Cl  -0.039363254348575  -0.092620940102451  -0.051083651161149 1
force Cl   0.004193403307834   0.010539825495521   0.031762579013771 1
force Cl  -0.091778516231667  -0.016964701673761   0.058698275551760 1
force Cl  -0.007342017611418  -0.003856121105015  -0.003939930525664 1
force Cl   0.060952694536101   0.044004577571484  -0.026861818611660 1
force Cl  -0.043704066478524   0.022069796468255   0.022168521726086 1
force Cl  -0.027582780307509   0.036005718298061   0.022365417656835 1
force Cl   0.025744880144355  -0.011520372050866  -0.012054121070362 1
force Cl   0.028635526149375   0.001525204113204   0.042622926729008 1
force Cl   0.037969833411524  -0.000876359202497  -0.062659817650271 1
force Cl  -0.029770316050844  -0.055553950845133  -0.019696299107991 1
force Cl  -0.020134304646884   0.025015182020158  -0.004056306515443 1
force Cl   0.004817140710330  -0.031917773195620  -0.001132707962817 1
force Cl  -0.029144305084918   0.032197756668920   0.018041200999766 1
force Cl   0.001318713916305   0.040241328809647   0.020442267643858 1
force Cl   0.040295798148776  -0.009394764229001  -0.032659151636759 1
force Cl   0.011311957153077  -0.002402164825158  -0.038407516646864 1

# Energy components:
   Eewald =    -1370.3029213859474567
       EH =      585.9797126225585089
     Eloc =      868.0359639777539087
      Enl =    -2225.9180076411334994
     EvdW =       -0.8908578039482795
      Exc =     -389.3772050405904110
 Exc_core =       51.9094031832241427
       KE =      473.2362890242148410
-------------------------------------
     Etot =    -2007.3276230638680317


Dumping 'md.ionpos' ... done
Dumping 'md.lattice' ... done

#--- Lowdin population analysis ---
# oxidation-state Na +0.697 +0.696 +0.700 +0.699 +0.698 +0.699 +0.703 +0.697 +0.691 +0.704 +0.702 +0.696 +0.695 +0.704 +0.693 +0.699 +0.702 +0.698 +0.701 +0.696 +0.705 +0.699 +0.697 +0.704 +0.701 +0.700 +0.703 +0.695 +0.695 +0.698 +0.698 +0.698
# oxidation-state Cl -0.631 -0.642 -0.637 -0.625 -0.639 -0.634 -0.637 -0.622 -0.634 -0.629 -0.631 -0.641 -0.631 -0.643 -0.634 -0.649 -0.635 -0.635 -0.622 -0.638 -0.628 -0.617 -0.641 -0.629 -0.636 -0.642 -0.619 -0.622 -0.635 -0.631 -0.637 -0.636


-------- Electronic minimization -----------
ElecMinimize: Iter:   0  Etot: -2007.228039928661474  |grad|_K:  2.502e-04  alpha:  1.000e+00
ElecMinimize: Iter:   1  Etot: -2007.337531222812231  |grad|_K:  4.683e-05  alpha:  3.202e-01  linmin: -1.847e-03  t[s]:    161.97
ElecMinimize: Iter:   2  Etot: -2007.343600955327702  |grad|_K:  1.987e-05  alpha:  5.058e-01  linmin:  3.270e-04  t[s]:    164.29
ElecMinimize: Iter:   3  Etot: -2007.344444598068321  |grad|_K:  1.151e-05  alpha:  3.908e-01  linmin: -5.000e-05  t[s]:    166.61
ElecMinimize: Iter:   4  Etot: -2007.344814646070063  |grad|_K:  5.972e-06  alpha:  5.107e-01  linmin:  1.219e-04  t[s]:    168.89
ElecMinimize: Iter:   5  Etot: -2007.344917975470707  |grad|_K:  4.586e-06  alpha:  5.297e-01  linmin: -1.769e-05  t[s]:    171.17
ElecMinimize: Iter:   6  Etot: -2007.344984073592741  |grad|_K:  2.697e-06  alpha:  5.745e-01  linmin:  9.868e-06  t[s]:    173.46
ElecMinimize: Iter:   7  Etot: -2007.345019200970910  |grad|_K:  1.673e-06  alpha:  8.826e-01  linmin: -1.271e-06  t[s]:    175.72
ElecMinimize: Iter:   8  Etot: -2007.345029367986172  |grad|_K:  1.002e-06  alpha:  6.643e-01  linmin: -4.806e-08  t[s]:    178.03
ElecMinimize: Iter:   9  Etot: -2007.345032948815287  |grad|_K:  6.081e-07  alpha:  6.517e-01  linmin:  7.618e-07  t[s]:    180.34
ElecMinimize: Iter:  10  Etot: -2007.345034076958655  |grad|_K:  4.221e-07  alpha:  5.578e-01  linmin:  5.562e-07  t[s]:    182.60
ElecMinimize: Iter:  11  Etot: -2007.345034525697884  |grad|_K:  2.746e-07  alpha:  4.605e-01  linmin:  2.926e-06  t[s]:    184.85
ElecMinimize: Iter:  12  Etot: -2007.345034758412567  |grad|_K:  1.545e-07  alpha:  5.642e-01  linmin: -1.759e-05  t[s]:    187.14
ElecMinimize: Iter:  13  Etot: -2007.345034838770516  |grad|_K:  1.131e-07  alpha:  6.152e-01  linmin:  1.417e-05  t[s]:    189.38
ElecMinimize: Iter:  14  Etot: -2007.345034878293518  |grad|_K:  6.837e-08  alpha:  5.646e-01  linmin:  1.701e-05  t[s]:    191.64
ElecMinimize: Converged (|Delta Etot|<1.000000e-07 for 2 iters).
Setting wave functions to eigenvectors of Hamiltonian

IonicDynamics: Step:   3  PE: -2007.345035  KE:   0.123543  T[K]:  412.823  P[Bar]:      nan  tMD[fs]:      3.00  t[s]:    196.23

# Ionic positions in cartesian coordinates:
ion Na  17.786457064461512  13.888994170272269  18.933340594807891 v  -0.000213660264788   0.000177334071909   0.000171919538652 1
ion Na  11.537855224169874  13.997362457208080  13.366003921938130 v  -0.000012302580174  -0.000091918011961   0.000056544292040 1
ion Na  10.879881499391775  12.306106871195968   7.602978150474399 v   0.000229879150420  -0.000003046454435  -0.000055559388370 1
ion Na  13.774049652511165  19.551412276526605  16.936032560544170 v   0.000028820867934   0.000081064078833  -0.000223109193471 1
ion Na  20.734415861886390   7.991310934396907  20.529135392511421 v   0.000195907217853  -0.000096111508813  -0.000021353792608 1
ion Na   6.497245219004692  15.183384652201999  12.593442211218557 v  -0.000317302593963   0.000005157983597  -0.000007630297568 1
ion Na  21.871187962258034  10.484057793727789  13.800005863023570 v  -0.000156621791606  -0.000082645151277   0.000024726786735 1
ion Na   8.661625529626097  21.634474396833383  15.705956069563797 v   0.000019235236115  -0.000245562736001   0.000222928379297 1
ion Na  13.063702813989625  18.817691956960072  11.527881990667213 v   0.000247627801408   0.000053734215545  -0.000142372888311 1
ion Na  15.754088668010468   9.450847841261394  19.935374284147251 v   0.000032995579325  -0.000160577691943   0.000068412460390 1
ion Na   7.642704949808703  17.325742145142989  17.634971207025046 v  -0.000125510492827   0.000009050093698   0.000290971604065 1
ion Na  18.247482859529960  17.431128511546813  11.839855751727120 v   0.000321681889104  -0.000196958124573   0.000109039525822 1
ion Na  23.037674136779607  14.304449884951151   6.554061596939777 v  -0.000242190161362  -0.000297606769882   0.000065106123396 1
ion Na  20.155358201699173  22.687990599802205  15.978900643761378 v  -0.000385222941720  -0.000026491409772  -0.000252240476107 1
ion Na  16.679015893962188  12.137329944197441  13.864172883653934 v  -0.000162294131741   0.000075715537229   0.000082344387361 1
ion Na   9.379538283859395   7.680949570942939   9.070744868951861 v  -0.000068513545835   0.000014558956859   0.000177762635670 1
ion Na  15.784748951423575  11.573508791696803   8.151589534180300 v  -0.000353209439744  -0.000189300267149   0.000049196915035 1
ion Na  11.633146621084379  12.290065026428865  18.623802578208490 v  -0.000030648762061   0.000081015171663   0.000134393446599 1
ion Na  22.302575141884891  12.284164551955110  18.790142987444522 v  -0.000223466241529   0.000175051340676   0.000033381218485 1
ion Na  14.371081336632834   6.709359794073012   9.867942103013565 v   0.000140067518500  -0.000372144621862  -0.000127044992875 1
ion Na  17.687228690998857  15.636987169786012   6.830923743482762 v   0.000290744533511   0.000156268793165  -0.000103296763555 1
ion Na  15.232316964091911   7.445383640422993  15.226608816803873 v  -0.000089011414227  -0.000187573566945  -0.000398949013370 1
ion Na   9.605562608085537   9.867093068816775  14.102013256850766 v   0.000022983818074  -0.000096544775307  -0.000174875344772 1
ion Na  20.011138585734663  21.731596965654731  10.305848728343712 v   0.000033308926004   0.000026200735774   0.000084969154051 1
ion Na   7.753170968584800  19.163975824957348  22.354663054104940 v   0.000172030155998  -0.000124895233607  -0.000140440076803 1
ion Na  19.299499478973118  18.657964794187308  17.602544737755302 v  -0.000541382843903  -0.000395660085158   0.000115407480336 1
ion Na  12.170591260714867  17.539080339799366  22.650588039471749 v   0.000243695878745   0.000528111784326   0.000279549400355 1
ion Na  21.109147792208670   9.807022883134008   8.602799365323682 v  -0.000008763075735   0.000158220678464   0.000098135774005 1
ion Na   7.812415381474247  19.916012919860826  11.094619977937986 v  -0.000265465011938  -0.000009034527159  -0.000123692994831 1
ion Na  14.160184412155409  22.100652246901507  21.730956642745966 v   0.000126613076714  -0.000046145325478   0.000127562682249 1
ion Na   9.162643994481607   6.706428677461446  20.826993926758053 v  -0.000019879502404  -0.000165841496229   0.000219936261126 1
ion Na  19.270949918605357  20.038953072824008  22.693735440655523 v  -0.000153888345185  -0.000227565590816  -0.000029880958178 1
ion Cl  18.102353594737945   8.610801786035642  12.141553373076698 v  -0.000000014912890  -0.000247017454186  -0.000243581762241 1
ion Cl  22.204246536530253  20.936521233759048  19.013029119845378 v   0.000134143901441  -0.000010106281554   0.000208268883693 1
ion Cl  19.449403463188570  13.090720839669395  10.283380121446609 v   0.000016944714818   0.000257404675647   0.000106405031223 1
ion Cl  16.669757711378502  20.749642613913096  14.053579237749624 v  -0.000166277545342   0.000070176461100  -0.000272630448034 1
ion Cl  17.191446181673609  22.673034994854572  18.922046250224309 v  -0.000127860048661  -0.000150165143284   0.000044049012284 1
ion Cl  21.178465954610317  16.110869519265112  20.566952954929270 v   0.000058861102874   0.000047354166090  -0.000057026931814 1
ion Cl  15.956195122226875  18.246318209172230  20.345711825663301 v   0.000062585128467   0.000082369606408   0.000102866803763 1
ion Cl  14.536297648551713  13.485736584802194  21.718706546989544 v   0.000117860676728  -0.000138143253898  -0.000069340961542 1
ion Cl  12.048069018518593   8.397597862334198  23.197350610284399 v   0.000199029361849   0.000231916439052  -0.000096698725021 1
ion Cl  11.055520557335559  21.040942753155385   8.166562129174237 v   0.000098614572110  -0.000001375395944  -0.000100383008739 1
ion Cl  16.232976147773510  19.772489241670865   8.257818731490396 v  -0.000124439341015   0.000127687259943  -0.000077975162004 1
ion Cl  19.472851162289416  11.611467809021098  22.577011876213888 v  -0.000029073191697   0.000099892721622   0.000176663395955 1
ion Cl  17.697889470270475   7.178337699507098   6.515045630352953 v  -0.000075464336627   0.000123517134565  -0.000047293776488 1
ion Cl   9.966935633312680  17.759593074577758  14.302552315387013 v   0.000083116088624  -0.000044033639761   0.000069283304135 1
ion Cl   7.624834756377997  11.470840565650922  10.721650154187083 v   0.000142314119413  -0.000013579209704  -0.000098250450707 1
ion Cl   9.397463451962816  15.480375274786557  21.072202098054490 v   0.000116220467448  -0.000048554389959  -0.000225262791190 1
ion Cl   6.896080648825249   8.148023363378698  17.022318544968535 v   0.000115865091707   0.000083059477137   0.000090365369998 1
ion Cl  12.516101854251716   8.758425373767061  17.288808960857843 v  -0.000169965038872   0.000140874283454   0.000036400703706 1
ion Cl  13.117085358192892  10.481081855290011  11.531468504534640 v   0.000143148116721   0.000093416325335  -0.000213551378656 1
ion Cl  11.467856012417609  22.563725826039988  13.179137397737724 v   0.000159189470485   0.000178053130881  -0.000100748284291 1
ion Cl  10.875027649905855  20.260074161534561  19.348837759418494 v   0.000016589711575   0.000054472509859   0.000051945295334 1
ion Cl  21.802160441317053  17.649914956207514   8.678732188842178 v  -0.000189489767187   0.000094640393609   0.000213721504013 1
ion Cl   9.534189794781771  16.136697529888796   9.325921530149406 v   0.000167431688171  -0.000059856056892   0.000127768517864 1
ion Cl  22.684454433087005  22.791328686966196   6.572659091526842 v   0.000051400391716   0.000124392569192   0.000059889845627 1
ion Cl  21.814662999562493  19.124555019056114  14.325565528070349 v   0.000191547525081   0.000022125926963  -0.000060838967767 1
ion Cl  14.899026638434748  15.371304535973614  10.576900460453311 v  -0.000026068779377  -0.000265915392654  -0.000112847990058 1
ion Cl  18.992412669406697   9.865021742243819  17.045843205918157 v   0.000116577665843   0.000092374302524   0.000014645814504 1
ion Cl  14.360229025134002  15.366389111273524  16.326134048279126 v   0.000018898886119   0.000131991583018   0.000085241908374 1
ion Cl  23.491410830351356   6.549614223559969  11.954361437323529 v  -0.000175635784888   0.000103286213410   0.000131909543956 1
ion Cl   8.189007894848372  13.089846671866253  16.072844918853523 v   0.000083743662085   0.000174942803658   0.000011072029172 1
ion Cl   7.265120472230015  10.496038891834763  22.477036498289941 v   0.000236591836233   0.000056583905237  -0.000081696956970 1
ion Cl  19.932370938430982  14.763774213815866  15.482826025670571 v   0.000017356058085   0.000062354235759  -0.000284211252932 1

# Forces in Cartesian coordinates:
force Na  -0.019049263765384  -0.004631058861351   0.010652367628774 1
force Na  -0.001224982135282  -0.005833086811851  -0.023042946843053 1
force Na   0.011153565951888   0.017758603273968  -0.002876986245375 1
force Na   0.027988344238386   0.010889412756326  -0.059158495314046 1
force Na   0.021823237532663  -0.008583643486549  -0.007400801994129 1
force Na  -0.024711875974901   0.018838522934972  -0.009026332250532 1
force Na  -0.009171658456482   0.011097489675419  -0.001597107420411 1
force Na  -0.052072127196728  -0.011850591215828   0.039798141047357 1
force Na   0.000732177709610   0.029128777239615   0.003234302984965 1
force Na  -0.001029739452360   0.023478510351341   0.039172063097774 1
force Na  -0.036378735169673  -0.002741522819538   0.014776845774342 1
force Na   0.035645777783437  -0.006082609371552   0.006773029130645 1
force Na   0.021350177529489  -0.025573962693462   0.047181608189107 1
force Na   0.007897375966715   0.058806315542870  -0.064207252512129 1
force Na  -0.023838285169696   0.031188767922201   0.011246476911064 1
force Na  -0.028845573126830   0.015911130009226   0.025176065324480 1
force Na   0.003021558513958  -0.037000653988770   0.015850358633007 1
force Na  -0.021775790078287   0.060049710785248   0.037388522316018 1
force Na  -0.002533710883539  -0.010525260927444   0.021399566297041 1
force Na   0.021701207460651  -0.019063900499780  -0.004020523187414 1
force Na   0.013308494912970   0.014737728872896   0.002486900878564 1
force Na   0.073838141403011  -0.026412784156283  -0.067033155633319 1
force Na   0.021474716571387  -0.058333810263830  -0.015152423382835 1
force Na  -0.021302860900210  -0.003046629030943  -0.001544996759308 1
force Na  -0.020228184858087   0.009268734297091   0.024326589022758 1
force Na  -0.071785825362805  -0.041819915111567  -0.012763423999252 1
force Na   0.083409916012046   0.029027692659953   0.058890486759792 1
force Na   0.037276377499497  -0.077988831944816   0.030364218376236 1
force Na   0.006015521323397  -0.020369377274044  -0.020173001394908 1
force Na  -0.012376556053035  -0.009903130785821   0.018513767859294 1
force Na  -0.036442921045082   0.006250478398373  -0.019335269448412 1
force Na   0.039639751715007   0.003311492361220  -0.033146000731116 1
force Cl   0.014775025026311  -0.061222041394753  -0.037659821154616 1
force Cl   0.076827569632711   0.013188591302606   0.063161715790177 1
force Cl   0.016073236291890   0.054498417979241   0.032425926439611 1
force Cl  -0.004048567221527  -0.026417991649459  -0.036415291989660 1
force Cl  -0.018513724819560  -0.005569958667215  -0.017367557051862 1
force Cl  -0.005776832899791   0.030875236554934  -0.014703917607887 1
force Cl   0.001572494491603  -0.045558654289649   0.020435660781947 1
force Cl  -0.046714403450581  -0.010040377076719   0.004503233015757 1
force Cl   0.073925501021975   0.056464621968144  -0.027902754294508 1
force Cl  -0.009954468818765  -0.030577793762172  -0.026644962053838 1
force Cl  -0.031485896728080  -0.004169087069957   0.047142297729069 1
force Cl  -0.036186458379857   0.044653849665078  -0.063469918427344 1
force Cl  -0.029456079151508   0.015446656808305   0.047065103141971 1
force Cl   0.021620900967650   0.006516221835557   0.003733290467499 1
force Cl   0.006490947788978   0.012906449001855  -0.031475835476739 1
force Cl  -0.035407561637824  -0.090527969908796  -0.046824527476191 1
force Cl   0.004090347595300   0.009617675412427   0.031366427009905 1
force Cl  -0.087192228730904  -0.018740380457130   0.056184224753032 1
force Cl  -0.008310041017656  -0.005701144236646  -0.002893728293849 1
force Cl   0.057359869781859   0.042387047680593  -0.025386362272546 1
force Cl  -0.041700144997368   0.021748699387922   0.021229441055216 1
force Cl  -0.025738113682243   0.034617810105490   0.020041437703720 1
force Cl   0.024330221941140  -0.010984724459734  -0.012828964613182 1
force Cl   0.028057423380197   0.000272212152716   0.043112264414542 1
force Cl   0.035726080648159  -0.000272022702456  -0.058913229044525 1
force Cl  -0.028614321830743  -0.052380148103809  -0.019266772967934 1
force Cl  -0.021697313223571   0.024160394289197  -0.003632877154374 1
force Cl   0.004772355292222  -0.032260696014083  -0.001617637799135 1
force Cl  -0.027894689848266   0.031649944524243   0.018189395651059 1
force Cl   0.000255475412126   0.038285276499886   0.020289826115935 1
force Cl   0.039434410612584  -0.009673202797018  -0.032985097098346 1
force Cl   0.010019790297590  -0.003516616386610  -0.035468027585857 1

# Energy components:
   Eewald =    -1370.7057552437986487
       EH =      585.5996991815145520
     Eloc =      868.7969998524158655
      Enl =    -2225.8875215851921894
     EvdW =       -0.8907674736472785
      Exc =     -389.3658259473240832
 Exc_core =       51.9094037265433741
       KE =      473.1987326111949415
-------------------------------------
     Etot =    -2007.3450348782935180


Dumping 'md.ionpos' ... done
Dumping 'md.lattice' ... done

#--- Lowdin population analysis ---
# oxidation-state Na +0.697 +0.696 +0.700 +0.699 +0.698 +0.699 +0.703 +0.697 +0.691 +0.703 +0.702 +0.696 +0.695 +0.704 +0.693 +0.699 +0.702 +0.697 +0.700 +0.696 +0.705 +0.699 +0.697 +0.704 +0.701 +0.700 +0.703 +0.695 +0.695 +0.698 +0.698 +0.698
# oxidation-state Cl -0.631 -0.641 -0.637 -0.625 -0.639 -0.634 -0.637 -0.622 -0.634 -0.629 -0.631 -0.641 -0.631 -0.643 -0.633 -0.649 -0.635 -0.635 -0.622 -0.637 -0.628 -0.617 -0.641 -0.629 -0.636 -0.642 -0.619 -0.622 -0.636 -0.631 -0.637 -0.636


-------- Electronic minimization -----------
[...]

# Energy components:
   Eewald =    -1374.6831758638124938
       EH =      581.4293456938132749
     Eloc =      876.5786618478718992
      Enl =    -2225.2765676125573009
     EvdW =       -0.8999550516975705
      Exc =     -389.1509098156905679
 Exc_core =       51.9094187411772623
       KE =      472.5297998930674908
-------------------------------------
     Etot =    -2007.5633821678277400


Dumping 'md.ionpos' ... done
Dumping 'md.lattice' ... done

#--- Lowdin population analysis ---
# oxidation-state Na +0.692 +0.683 +0.695 +0.697 +0.695 +0.697 +0.704 +0.705 +0.699 +0.692 +0.700 +0.706 +0.698 +0.706 +0.692 +0.701 +0.698 +0.700 +0.697 +0.701 +0.705 +0.688 +0.698 +0.701 +0.698 +0.705 +0.699 +0.693 +0.700 +0.706 +0.697 +0.701
# oxidation-state Cl -0.628 -0.640 -0.630 -0.622 -0.641 -0.626 -0.634 -0.632 -0.622 -0.638 -0.633 -0.634 -0.638 -0.633 -0.627 -0.638 -0.615 -0.618 -0.631 -0.632 -0.632 -0.634 -0.639 -0.631 -0.642 -0.618 -0.625 -0.622 -0.622 -0.634 -0.633 -0.627


-------- Electronic minimization -----------
ElecMinimize: Iter:   0  Etot: -2007.230051648664812  |grad|_K:  4.201e-04  alpha:  1.000e+00
ElecMinimize: Iter:   1  Etot: -2007.539378104815341  |grad|_K:  8.251e-05  alpha:  3.219e-01  linmin: -4.360e-03  t[s]:   9302.16
ElecMinimize: Iter:   2  Etot: -2007.557528881314056  |grad|_K:  4.040e-05  alpha:  4.870e-01  linmin:  7.103e-04  t[s]:   9304.43
ElecMinimize: Iter:   3  Etot: -2007.560687546083273  |grad|_K:  2.087e-05  alpha:  3.541e-01  linmin: -7.100e-05  t[s]:   9306.71
ElecMinimize: Iter:   4  Etot: -2007.562035888353194  |grad|_K:  1.126e-05  alpha:  5.660e-01  linmin:  2.390e-04  t[s]:   9308.98
ElecMinimize: Iter:   5  Etot: -2007.562392176258527  |grad|_K:  8.212e-06  alpha:  5.136e-01  linmin: -1.756e-05  t[s]:   9311.25
ElecMinimize: Iter:   6  Etot: -2007.562621834697438  |grad|_K:  4.817e-06  alpha:  6.226e-01  linmin:  1.148e-05  t[s]:   9313.54
ElecMinimize: Iter:   7  Etot: -2007.562733735729353  |grad|_K:  3.017e-06  alpha:  8.816e-01  linmin: -9.420e-07  t[s]:   9315.80
ElecMinimize: Iter:   8  Etot: -2007.562765417083483  |grad|_K:  1.905e-06  alpha:  6.364e-01  linmin: -6.466e-07  t[s]:   9318.09
ElecMinimize: Iter:   9  Etot: -2007.562776324183233  |grad|_K:  1.331e-06  alpha:  5.497e-01  linmin:  4.155e-06  t[s]:   9320.42
ElecMinimize: Iter:  10  Etot: -2007.562780612153574  |grad|_K:  8.177e-07  alpha:  4.422e-01  linmin: -2.230e-06  t[s]:   9322.69
ElecMinimize: Iter:  11  Etot: -2007.562782734443317  |grad|_K:  4.805e-07  alpha:  5.802e-01  linmin:  9.708e-07  t[s]:   9324.96
ElecMinimize: Iter:  12  Etot: -2007.562783595215251  |grad|_K:  2.772e-07  alpha:  6.816e-01  linmin: -1.568e-06  t[s]:   9327.23
ElecMinimize: Iter:  13  Etot: -2007.562783859819319  |grad|_K:  2.000e-07  alpha:  6.294e-01  linmin: -2.265e-07  t[s]:   9329.51
ElecMinimize: Iter:  14  Etot: -2007.562783984075395  |grad|_K:  1.227e-07  alpha:  5.680e-01  linmin:  1.374e-05  t[s]:   9331.77
ElecMinimize: Iter:  15  Etot: -2007.562784042409930  |grad|_K:  9.367e-08  alpha:  7.084e-01  linmin:  1.259e-05  t[s]:   9334.04
ElecMinimize: Iter:  16  Etot: -2007.562784070229554  |grad|_K:  7.243e-08  alpha:  5.797e-01  linmin: -2.432e-07  t[s]:   9336.33
ElecMinimize: Converged (|Delta Etot|<1.000000e-07 for 2 iters).
Setting wave functions to eigenvectors of Hamiltonian

IonicDynamics: Step: 200  PE: -2007.562784  KE:   0.341197  T[K]: 1140.121  P[Bar]:      nan  tMD[fs]:    200.00  t[s]:   9341.04

# Ionic positions in cartesian coordinates:
ion Na  17.571236613348848  14.765371461077324  18.548633351386794 v   0.000150723350194   0.000126964236046  -0.000182865589780 1
ion Na  11.246180054874852  14.141652098758343  12.574164080722181 v  -0.000027997654734   0.000043827755024   0.000267573565531 1
ion Na  10.954696389716974  12.636362169293546   7.224400984832355 v  -0.000160147961958  -0.000010089406340  -0.000043624104014 1
ion Na  13.071606432137541  19.993844771720209  16.427155442793655 v  -0.000157300045850   0.000628899631110   0.000435248965117 1
ion Na  20.903828617984708   7.693882730902810  20.630494150447937 v  -0.000529519180880   0.000330568528521   0.000182968768624 1
ion Na   6.030591609156554  15.417802380259124  12.093913423869587 v  -0.000211916860828  -0.000118635572254  -0.000148744575523 1
ion Na  22.262501029436883  10.779755245746180  14.030997625012350 v  -0.000447042212067  -0.000897416687364   0.000275630840969 1
ion Na   8.255404079863501  21.637007893301892  15.840054422633596 v   0.000279352333395  -0.000390894180316   0.000236762246791 1
ion Na  13.371151838742977  19.208983560654421  11.406212780495643 v  -0.000369101360474  -0.000218967722934   0.000093632479128 1
ion Na  15.538293359711593   9.275559504325136  20.417842962420519 v  -0.000279873175342   0.000385958245881  -0.000308854583061 1
ion Na   7.207880869867323  17.192625452636154  17.585729314426960 v   0.000271545465418  -0.000024125095094  -0.000193236228564 1
ion Na  18.139673444131848  16.979822605647968  12.041309991013174 v   0.000080096488163  -0.000437146290629  -0.000242388241189 1
ion Na  23.000430163684008  14.182029917115326   6.842615768514556 v   0.000064688007180   0.000663872582180  -0.000216893782056 1
ion Na  20.268186540301677  23.415883384537011  16.089640222468827 v   0.000194555933565  -0.000055411887012  -0.000251564466544 1
ion Na  17.005822066199272  12.929518787002035  13.787549573231823 v  -0.000524175236880   0.000177943055736   0.000449714631305 1
ion Na   9.177870837526163   7.469990238085281   9.225642330955104 v   0.000072397530917  -0.000187688612239   0.000606737122514 1
ion Na  16.162458740434161  11.279609506283942   8.344326761138579 v   0.000300823797253  -0.000068962680653  -0.000019441353801 1
ion Na  12.691497697597134  11.788676583888309  17.449079013690053 v   0.000388298387445   0.000267666811621  -0.000881156544677 1
ion Na  22.794983408013589  12.771650217907801  19.025688239872377 v  -0.000007452799048  -0.000356934605815  -0.000364422804038 1
ion Na  15.318754929486873   6.626669452944764  10.421089191083365 v   0.000305030673472   0.000462790368714   0.000381425556746 1
ion Na  17.413054000561324  16.034130744003139   6.660631639739395 v   0.000351379730168   0.000159953740883   0.000225139173824 1
ion Na  15.324693523588738   7.463808115845068  15.087559022754752 v   0.000190375186284  -0.000141520811461   0.000629182484260 1
ion Na   9.313179141800589   9.013930306891561  14.240466292531453 v   0.000066861954425  -0.000307564270499  -0.000306815293263 1
ion Na  19.588348728427835  21.590850575200122  10.604834418823893 v   0.000217742872658   0.000362726995440  -0.000268909417273 1
ion Na   7.466866438850766  18.776088861530024  22.876956088735291 v  -0.000166763299016   0.000361117025398   0.000162128526213 1
ion Na  18.760414843501799  18.860019008299503  17.253838259234264 v   0.000133633789050   0.000004282304826   0.000204892908461 1
ion Na  12.366222048376734  17.373925129711186  22.921002966607670 v  -0.000309976849228  -0.000039473213014   0.000123771382130 1
ion Na  21.559644634283664   9.311562125995176   8.734750153954343 v   0.000107987541850   0.000356099019498  -0.000235335975406 1
ion Na   7.871741083520905  20.482781492113091  10.877439381834645 v  -0.000120384335826  -0.000194135012780   0.000004606402978 1
ion Na  13.958891143969437  22.048827844573303  22.034030302319927 v  -0.000087777715078   0.000317947607878  -0.000150982553220 1
ion Na   9.564691718571417   6.650089440254370  21.228292857086672 v  -0.000104457878132  -0.000126068255946   0.000231806727521 1
ion Na  19.278200160217910  20.153945861886150  22.272292423222545 v  -0.000030730730159  -0.000546729472399  -0.000164418951372 1
ion Cl  18.378010714529303   8.685464671323500  12.341355665391582 v  -0.000102327733356   0.000051625163770   0.000331909542369 1
ion Cl  22.513998633927603  21.104372721146866  18.937595490011905 v  -0.000304397317430   0.000262118581752   0.000122229692908 1
ion Cl  19.854502233039970  12.823350196150452  10.356961258704603 v   0.000346280268996  -0.000144007140187   0.000087446166389 1
ion Cl  16.617276822690396  20.584877514806177  14.211669860898343 v  -0.000444508842155   0.000110853702925   0.000415319997212 1
ion Cl  17.352788475019050  22.632002276147592  18.898181922511419 v  -0.000002918561904   0.000007227533370  -0.000079508639539 1
ion Cl  21.043107664263815  16.278220482598311  20.613523299427943 v   0.000182271851716  -0.000286360606791  -0.000053459051621 1
ion Cl  15.675202137200156  18.018196498977971  20.076885553567923 v   0.000010109327969   0.000385282763529   0.000040579268571 1
ion Cl  14.366679558464709  12.955435704488258  21.492718155721178 v  -0.000067378652414   0.000147940668389  -0.000211443801349 1
ion Cl  12.933389887255947   8.629089996363358  24.484217942370648 v  -0.000113553956064   0.000047665731188  -0.000270853013381 1
ion Cl  10.796329923757884  21.058465302237483   7.632710870515129 v  -0.000125804557443  -0.000249148458650  -0.000093219009875 1
ion Cl  16.413830939386855  19.730126299005871   8.354800386728170 v  -0.000142921197337  -0.000261504064124   0.000059976759773 1
ion Cl  19.435167884078972  11.732919742739012  22.077884809369529 v  -0.000209409173574   0.000099757933770   0.000133436426115 1
ion Cl  18.052523571616337   7.040187015047207   6.981153461541038 v  -0.000332239016003   0.000152230933025  -0.000445501106054 1
ion Cl   9.777409940984816  17.837234859577489  13.753797420191919 v   0.000397390480828  -0.000382405390655  -0.000145360347352 1
ion Cl   8.084302920526911  11.486814557639731  10.514432652982832 v   0.000063200985298   0.000023556510947  -0.000373729580168 1
ion Cl   9.769765160127694  14.319187665098475  20.530303597074155 v  -0.000025855883427  -0.000477507136457  -0.000157206609299 1
ion Cl   7.179950852539367   9.195141179019146  17.760953443323551 v  -0.000257124760480   0.000039298597922   0.000154321356625 1
ion Cl  12.123031600076422   7.475552904791732  18.145661207128935 v   0.000002428743077   0.000214529169798  -0.000466737485013 1
ion Cl  13.104254317729421  10.565002813007395  12.709135404129748 v   0.000277287651783   0.000016609854734   0.000096239402910 1
ion Cl  11.431280838864808  22.691259325881575  13.207684555519842 v  -0.000081094019407  -0.000275008744831  -0.000116369148020 1
ion Cl  10.356621882578530  19.398178570779486  19.526055787084047 v   0.000482041150096   0.000167884081275  -0.000079563582181 1
ion Cl  21.106118779001566  17.930338521366959   8.729809891908339 v   0.000165969666398   0.000152376835406  -0.000323673145882 1
ion Cl   9.111441245807406  16.074117559227023   8.683065221320879 v  -0.000110001102615   0.000214031527448  -0.000116487769073 1
ion Cl  22.831762987453008  22.660083418586524   6.899682718653430 v   0.000292523388664   0.000057830719804   0.000087147988575 1
ion Cl  21.723522588552530  19.319899409969381  13.832270641364389 v   0.000152038778470  -0.000392217984549   0.000327904207812 1
ion Cl  14.560158248988975  15.078966493170766   9.744708770275004 v   0.000108224938265  -0.000002077538965   0.000270330829993 1
ion Cl  17.704300966428818  10.421685446246807  17.357736023296138 v   0.000276301300761  -0.000294686929974   0.000091987668871 1
ion Cl  14.436543900208759  15.801622477041946  15.680283861416276 v   0.000151559504801   0.000281452615083   0.000007878592437 1
ion Cl  22.889160901330019   6.739498757522494  12.533330883134141 v   0.000216673987452  -0.000199014435593   0.000196531220482 1
ion Cl   8.641193754319465  13.455060089565961  15.703183872351300 v   0.000029119979659   0.000119488219147   0.000172878955341 1
ion Cl   7.489285637550135  10.214449882930209  22.492586374449708 v  -0.000191499532681  -0.000063644068573  -0.000143709730230 1
ion Cl  20.498678843812719  14.489130179154703  15.330205559781813 v  -0.000283263443883  -0.000053032775939  -0.000050863375676 1

# Forces in Cartesian coordinates:
force Na  -0.000124673893959  -0.057173597078895   0.008067208928782 1
force Na   0.007279047233594   0.020051830116474  -0.030732420458244 1
force Na   0.019174605889631  -0.027682877717839   0.008971863048106 1
force Na   0.000775735246225   0.003872286907502   0.011146830782296 1
force Na   0.002231027060337   0.028191198568958  -0.004910140700924 1
force Na   0.024518364608396   0.000902761610506  -0.012848487902080 1
force Na  -0.017118304244402   0.005130884185300   0.001187442810314 1
force Na   0.001102906579501   0.007752343804406   0.010965609684093 1
force Na  -0.014775890002603  -0.021727007479356  -0.006410933193614 1
force Na  -0.014634271618620  -0.054554702903717   0.059326802995290 1
force Na  -0.011706270768145  -0.011203420204166  -0.010902852514438 1
force Na  -0.005605005743646  -0.005518469471296  -0.000930330770230 1
force Na  -0.019139342675618  -0.025401279232789  -0.003452337893010 1
force Na   0.013223417012873   0.027011232397504  -0.033604605916886 1
force Na  -0.037234468138478  -0.029626973638165  -0.026289222645011 1
force Na  -0.011391530626133   0.023864315132916   0.015351749588699 1
force Na   0.016259713506028  -0.009047869635663   0.005632802166846 1
force Na  -0.008147317666551   0.018157249626974  -0.006847180073800 1
force Na  -0.015771227296439   0.006657464554986   0.007274100976510 1
force Na  -0.037689037856851  -0.021303033894534   0.004035966924657 1
force Na   0.023996462490525  -0.045122351462764  -0.020944077065932 1
force Na  -0.016104211550370   0.006471455659052   0.013540959092373 1
force Na   0.012092503078379   0.024153324423078  -0.011806763946702 1
force Na   0.005832404321609   0.018788383609002   0.002107175676209 1
force Na  -0.016689011828163  -0.010025857242107  -0.026692465382910 1
force Na   0.041596728905350  -0.026342180567469   0.004596787526561 1
force Na   0.014819674430336  -0.023943008502992   0.009452102582568 1
force Na   0.002135639960597  -0.004529173760592  -0.005426439765700 1
force Na  -0.007697020712089  -0.023861298708816  -0.021399656247214 1
force Na   0.021028847043017  -0.003104939982878  -0.019820227210189 1
force Na  -0.029717029211535  -0.014253546314905   0.017308100677084 1
force Na   0.014857413102965   0.005529347488156  -0.018354655996652 1
force Cl   0.003276575070110  -0.000004320890971   0.007524881036601 1
force Cl   0.005365759201140  -0.008957713386870   0.020689476927023 1
force Cl  -0.001012151791928   0.047186092839746  -0.025671902695250 1
force Cl  -0.003043605656179   0.006490601421324  -0.057572976293831 1
force Cl  -0.035759581455616   0.004422233709220   0.029557682720974 1
force Cl   0.012869343691737   0.043675794220373   0.006469763487396 1
force Cl  -0.039894077240518   0.032409121091226   0.038307138095127 1
force Cl   0.002426537361175   0.045267497017112   0.008167166076597 1
force Cl  -0.018381789444826   0.009730000464153  -0.015707029226572 1
force Cl   0.026010518022968  -0.025340996647479   0.022925914702233 1
force Cl  -0.062339483492795   0.012341125193638   0.012559053695223 1
force Cl   0.001274739926118   0.000739299888018   0.011462871269367 1
force Cl  -0.016252166680636   0.031742097081225  -0.008050232150073 1
force Cl   0.002456196074157   0.028035418629023   0.010781296773080 1
force Cl  -0.000242430353181  -0.007363516118299   0.015990310664802 1
force Cl  -0.017657839356357   0.024735082687013  -0.019791114475993 1
force Cl  -0.032447585666627  -0.070939894093174  -0.002423930101094 1
force Cl   0.018518654019967   0.000912991863352  -0.011080763470055 1
force Cl   0.039205236981253  -0.022937746077924  -0.004133517898235 1
force Cl   0.028169560115703   0.006796800964274  -0.045704801481691 1
force Cl   0.007130147584657   0.021454921596721   0.005034981796914 1
force Cl   0.021010265242360  -0.016054296382570  -0.000291587508029 1
force Cl   0.023794367147610   0.043779226396180   0.037447032820554 1
force Cl   0.021405995814129  -0.021995382202348   0.016404288703694 1
force Cl  -0.000706437976577  -0.019265884790208   0.024691154077189 1
force Cl  -0.021679625297135  -0.003417034770621   0.014259705365379 1
force Cl   0.041098290626987   0.024624241340660  -0.050205956061346 1
force Cl  -0.020415675679499  -0.007535904383378  -0.015093473300057 1
force Cl   0.035228033741158   0.023030625213333  -0.012138388940905 1
force Cl   0.001543824954533  -0.018560390169289   0.000014638293227 1
force Cl   0.009816165184291   0.002545667639271   0.029174753105252 1
force Cl   0.012077072200692   0.030504482504824   0.038787113108490 1

# Energy components:
   Eewald =    -1374.7272871053307881
       EH =      581.3819236262719414
     Eloc =      876.6726154433821421
      Enl =    -2225.2768568489200334
     EvdW =       -0.9000295777166452
      Exc =     -389.1499033282815958
 Exc_core =       51.9094175827547986
       KE =      472.5273361376106322
-------------------------------------
     Etot =    -2007.5627840702295543


Dumping 'md.ionpos' ... done
Dumping 'md.lattice' ... done
End date and time: Thu Sep 30 12:15:41 2021  (Duration: 0-2:35:41.05)
Done!

PROFILER:             augmentDensityGrid     0.143496 +/-     0.011655 s, 13216 calls,   1896.439876 s total
PROFILER:         augmentDensityGridGrad     0.279216 +/-     0.034918 s, 7214 calls,   2014.260648 s total
PROFILER:        augmentDensitySpherical     0.004975 +/-     0.000552 s, 13216 calls,     65.748398 s total
PROFILER:    augmentDensitySphericalGrad     0.004470 +/-     0.000739 s, 7214 calls,     32.243606 s total
PROFILER:                 augmentOverlap     0.048606 +/-     0.011406 s, 27208 calls,   1322.481536 s total
PROFILER:                     changeGrid     0.000145 +/-     0.000006 s, 10014 calls,      1.456437 s total
PROFILER:        ColumnBundle::randomize     0.015272 +/-     0.000000 s,    1 calls,      0.015272 s total
PROFILER:                     diagouterI     0.100481 +/-     0.004572 s, 6608 calls,    663.979959 s total
PROFILER:              EdensityAndVscloc     0.007132 +/-     0.000097 s, 6609 calls,     47.132788 s total
PROFILER:                     EnlAndGrad     0.008859 +/-     0.000677 s, 13606 calls,    120.534475 s total
PROFILER:            ExCorrCommunication     0.000020 +/-     0.000027 s, 21437 calls,      0.423195 s total
PROFILER:               ExCorrFunctional     0.000793 +/-     0.000080 s, 7213 calls,      5.719295 s total
PROFILER:                    ExCorrTotal     0.005446 +/-     0.000509 s, 7213 calls,     39.278947 s total
PROFILER:                   Idag_DiagV_I     0.185471 +/-     0.000919 s, 3406 calls,    631.714918 s total
PROFILER:                    inv(matrix)     0.006632 +/-     0.000000 s,    1 calls,      0.006632 s total
PROFILER:            matrix::diagonalize     0.033309 +/-     0.012788 s, 10215 calls,    340.246675 s total
PROFILER:                    matrix::set     0.000013 +/-     0.000002 s, 666282 calls,      8.491133 s total
PROFILER:     RadialFunctionR::transform     0.014451 +/-     0.005342 s,   82 calls,      1.184986 s total
PROFILER:                    reduceKmesh     0.000004 +/-     0.000000 s,    1 calls,      0.000004 s total
PROFILER:     VanDerWaals::energyAndGrad     3.302813 +/-     0.007532 s,  403 calls,   1331.033489 s total
PROFILER:               WavefunctionDrag     0.433051 +/-     0.014218 s,  200 calls,     86.610228 s total
PROFILER:                            Y*M     0.018970 +/-     0.005971 s, 47636 calls,    903.652485 s total
PROFILER:                          Y1^Y2     0.020355 +/-     0.006602 s, 42226 calls,    859.515991 s total

MEMUSAGE:                   ColumnBundle     0.590938 GB
MEMUSAGE:        complexScalarFieldTilde     0.005562 GB
MEMUSAGE:                    IndexArrays     0.000318 GB
MEMUSAGE:                         matrix     0.024160 GB
MEMUSAGE:                           misc     0.005356 GB
MEMUSAGE:                    ScalarField     0.053406 GB
MEMUSAGE:               ScalarFieldTilde     0.035191 GB
MEMUSAGE:                          Total     0.633212 GB
